
  ___ ___ ___ _ _ _  
 |   |   |_  | | | | 
 | | | | | . | | | | 
 |__ |  _|___|_____|  22.1.0
 |___|_|             

User:   thorkong@node030.cluster
Date:   Mon Oct 17 14:07:09 2022
Arch:   x86_64
Pid:    16359
Python: 3.10.5
gpaw:   /groups/kemi/thorkong/miniconda3/envs/gpaw22/lib/python3.10/site-packages/gpaw
_gpaw:  /groups/kemi/thorkong/miniconda3/envs/gpaw22/lib/python3.10/site-packages/
        _gpaw.cpython-310-x86_64-linux-gnu.so
ase:    /groups/kemi/thorkong/miniconda3/envs/gpaw22/lib/python3.10/site-packages/ase (version 3.22.1)
numpy:  /groups/kemi/thorkong/miniconda3/envs/gpaw22/lib/python3.10/site-packages/numpy (version 1.23.0)
scipy:  /groups/kemi/thorkong/miniconda3/envs/gpaw22/lib/python3.10/site-packages/scipy (version 1.8.1)
libxc:  5.2.3
units:  Angstrom and eV
cores: 32
OpenMP: True
OMP_NUM_THREADS: 1

Input parameters:
  basis: dzp
  kpts: [4 4 1]
  mode: {ecut: 600.0,
         name: pw}
  xc: BEEF-vdW

System changes: positions, numbers, cell, pbc, initial_charges, initial_magmoms 

Initialize ...

Cu-setup:
  name: Copper
  id: f1c4d45d90492f1bbfdcb091e8418fdf
  Z: 29.0
  valence: 11
  core: 18
  charge: 0.0
  file: /groups/kemi/thorkong/miniconda3/envs/gpaw22/share/gpaw/Cu.PBE.gz
  compensation charges: gauss, rc=0.33, lmax=2
  cutoffs: 2.06(filt), 2.43(core),
  valence states:
                energy  radius
    4s(1.00)    -4.609   1.164
    4p(0.00)    -0.698   1.164
    3d(10.00)    -5.039   1.058
    *s          22.603   1.164
    *p          26.513   1.164
    *d          22.172   1.058

  LCAO basis set for Cu:
    Name: dzp
    File: /groups/kemi/thorkong/miniconda3/envs/gpaw22/share/gpaw/Cu.dzp.basis.gz
    Number of radial functions: 5
    Number of spherical harmonics: 15
      l=0, rc=8.9688 Bohr: 4s-sz confined orbital
      l=2, rc=5.1719 Bohr: 3d-sz confined orbital
      l=0, rc=5.3281 Bohr: 4s-dz split-valence wave
      l=2, rc=3.1406 Bohr: 3d-dz split-valence wave
      l=1, rc=8.9688 Bohr: p-type Gaussian polarization

Cl-setup:
  name: Chlorine
  id: 726897f06f34e53cf8e33b5885a02604
  Z: 17.0
  valence: 7
  core: 10
  charge: 0.0
  file: /groups/kemi/thorkong/miniconda3/envs/gpaw22/share/gpaw/Cl.PBE.gz
  compensation charges: gauss, rc=0.25, lmax=2
  cutoffs: 1.40(filt), 1.49(core),
  valence states:
                energy  radius
    3s(2.00)   -20.689   0.794
    3p(5.00)    -8.594   0.794
    *s           6.523   0.794
    *p          18.617   0.794
    *d           0.000   0.794

  LCAO basis set for Cl:
    Name: dzp
    File: /groups/kemi/thorkong/miniconda3/envs/gpaw22/share/gpaw/Cl.dzp.basis.gz
    Number of radial functions: 5
    Number of spherical harmonics: 13
      l=0, rc=5.1719 Bohr: 3s-sz confined orbital
      l=1, rc=6.2656 Bohr: 3p-sz confined orbital
      l=0, rc=2.8281 Bohr: 3s-dz split-valence wave
      l=1, rc=3.5156 Bohr: 3p-dz split-valence wave
      l=2, rc=6.2656 Bohr: d-type Gaussian polarization

Reference energy: -2632037.589752

Spin-paired calculation

Convergence criteria:
 Maximum [total energy] change in last 3 cyles: 0.0005 eV / electron
 Maximum integral of absolute [dens]ity change: 0.0001 electrons / valence electron
 Maximum integral of absolute [eigenst]ate change: 4e-08 eV^2 / valence electron
 Maximum number of scf [iter]ations: 333
 (Square brackets indicate name in SCF output, whereas a 'c' in
 the SCF output indicates the quantity has converged.)

Symmetries present (total): 1

  ( 1  0  0)
  ( 0  1  0)
  ( 0  0  1)

16 k-points: 4 x 4 x 1 Monkhorst-Pack grid
8 k-points in the irreducible part of the Brillouin zone
       k-points in crystal coordinates                weights
   0:     0.12500000   -0.37500000    0.00000000          2/16
   1:     0.12500000   -0.12500000    0.00000000          2/16
   2:     0.12500000    0.12500000    0.00000000          2/16
   3:     0.12500000    0.37500000    0.00000000          2/16
   4:     0.37500000   -0.37500000    0.00000000          2/16
   5:     0.37500000   -0.12500000    0.00000000          2/16
   6:     0.37500000    0.12500000    0.00000000          2/16
   7:     0.37500000    0.37500000    0.00000000          2/16

Wave functions: Plane wave expansion
  Cutoff energy: 600.000 eV
  Number of coefficients (min, max): 54614, 54705
  Pulay-stress correction: 0.000000 eV/Ang^3 (de/decut=0.000000)
  Using FFTW library
  ScaLapack parameters: grid=2x2, blocksize=64
  Wavefunction extrapolation:
    Improved wavefunction reuse through dual PAW basis 

Occupation numbers: Fermi-Dirac: width=0.1000 eV
 

Eigensolver
   Davidson(niter=2) 

Densities:
  Coarse grid: 45*45*175 grid
  Fine grid: 90*90*350 grid
  Total Charge: 0.000000 

Density mixing:
  Method: separate
  Backend: pulay
  Linear mixing parameter: 0.05
  Mixing with 5 old densities
  Damping of long wave oscillations: 50 

Hamiltonian:
  XC and Coulomb potentials evaluated on a 90*90*350 grid
  Using the BEEF-vdW Exchange-Correlation functional
  External potential:
    NoExternalPotential
 

XC parameters: BEEF-vdW with 2 nearest neighbor stencil

Memory estimate:
  Process memory now: 243.84 MiB
  Calculator: 819.17 MiB
    Density: 42.61 MiB
      Arrays: 17.67 MiB
      Localized functions: 18.14 MiB
      Mixer: 6.80 MiB
    Hamiltonian: 12.00 MiB
      Arrays: 11.56 MiB
      XC: 0.00 MiB
      Poisson: 0.00 MiB
      vbar: 0.44 MiB
    Wavefunctions: 764.57 MiB
      Arrays psit_nG: 357.27 MiB
      Eigensolver: 389.40 MiB
      Projections: 1.93 MiB
      Projectors: 2.09 MiB
      PW-descriptor: 13.88 MiB

Total number of cores used: 32
Parallelization over k-points: 8
Domain decomposition: 1 x 1 x 4
                      2 x 2 x 8 (xc only)

Number of atoms: 70
Number of atomic orbitals: 1018
Number of bands in calculation: 428
Number of valence electrons: 706
Bands to converge: occupied

... initialized

Initializing position-dependent things.

Density initialized from atomic densities
Creating initial wave functions:
  428 bands from LCAO basis set

                                              
                                              
                                              
                                              
                     Cl     Cl     Cl         
                                              
                 Cl    Cl     Cl              
            Cl          CCl   Cu     Cu       
                   Cu     Cu    Cu            
               Cu    Cu     Cu                
                    Cu     Cu    Cu           
                Cu    Cu    Cu                
           Cu    Cu     Cu                    
                Cu     Cu    Cu               
            Cu    Cu     Cu                   
       Cu     Cu        Cu    Cu     Cu       
                   CCu    Cu    Cu            
               Cu    Cu     Cu                
                    Cu     Cu    Cu           
                Cu    Cu    Cu                
           Cu    Cu     Cu                    
                Cu     Cu    Cu               
            Cu    Cu     Cu                   
       Cu     Cu   CCu          Cl            
              Cl     Cl     Cl                
               Cl                             
         Cl            Cl                     
                                              
                                              
                                              
                                              

Positions:
   0 Cu     2.884162   -0.011729   10.033678    ( 0.0000,  0.0000,  0.0000)
   1 Cu     4.175487    2.207390    9.968025    ( 0.0000,  0.0000,  0.0000)
   2 Cu     0.268779    0.005327   10.035957    ( 0.0000,  0.0000,  0.0000)
   3 Cu     1.563079    2.250160   10.040939    ( 0.0000,  0.0000,  0.0000)
   4 Cu     2.905835    3.013667   12.132731    ( 0.0000,  0.0000,  0.0000)
   5 Cu     1.587256    0.751197   12.155983    ( 0.0000,  0.0000,  0.0000)
   6 Cu     5.501600    3.021336   12.124235    ( 0.0000,  0.0000,  0.0000)
   7 Cu     4.203724    0.772150   12.120007    ( 0.0000,  0.0000,  0.0000)
   8 Cu     5.509809    1.511263   14.273560    ( 0.0000,  0.0000,  0.0000)
   9 Cu     6.817749    3.779201   14.272965    ( 0.0000,  0.0000,  0.0000)
  10 Cu     2.895657    1.507106   14.282845    ( 0.0000,  0.0000,  0.0000)
  11 Cu     4.204745    3.779097   14.275593    ( 0.0000,  0.0000,  0.0000)
  12 Cu     2.898323   -0.006205   16.439255    ( 0.0000,  0.0000,  0.0000)
  13 Cu     4.202828    2.263486   16.411249    ( 0.0000,  0.0000,  0.0000)
  14 Cu     0.271173   -0.001683   16.415015    ( 0.0000,  0.0000,  0.0000)
  15 Cu     1.580207    2.267720   16.418056    ( 0.0000,  0.0000,  0.0000)
  16 Cu     2.898773    3.019517   18.534881    ( 0.0000,  0.0000,  0.0000)
  17 Cu     1.574509    0.759578   18.535562    ( 0.0000,  0.0000,  0.0000)
  18 Cu     5.517461    3.017381   18.557838    ( 0.0000,  0.0000,  0.0000)
  19 Cu     4.218777    0.769327   18.565915    ( 0.0000,  0.0000,  0.0000)
  20 Cu     5.482458    1.472743   20.721328    ( 0.0000,  0.0000,  0.0000)
  21 Cu     6.840691    3.826186   20.718062    ( 0.0000,  0.0000,  0.0000)
  22 Cu     2.872766    1.512688   20.651496    ( 0.0000,  0.0000,  0.0000)
  23 Cu     4.179191    3.794081   20.647081    ( 0.0000,  0.0000,  0.0000)
  24 Cu     5.533098    4.559222    9.954112    ( 0.0000,  0.0000,  0.0000)
  25 Cu     2.867968    4.534051   10.029210    ( 0.0000,  0.0000,  0.0000)
  26 Cu     4.213127    5.276205   12.126541    ( 0.0000,  0.0000,  0.0000)
  27 Cu     6.799507    5.268601   12.115394    ( 0.0000,  0.0000,  0.0000)
  28 Cu     8.121886    6.047639   14.244202    ( 0.0000,  0.0000,  0.0000)
  29 Cu     5.516666    6.046671   14.278211    ( 0.0000,  0.0000,  0.0000)
  30 Cu     5.511110    4.531825   16.410270    ( 0.0000,  0.0000,  0.0000)
  31 Cu     2.888634    4.532926   16.406558    ( 0.0000,  0.0000,  0.0000)
  32 Cu     4.204789    5.283723   18.534523    ( 0.0000,  0.0000,  0.0000)
  33 Cu     6.814487    5.265823   18.565627    ( 0.0000,  0.0000,  0.0000)
  34 Cu     8.131354    6.045561   20.650058    ( 0.0000,  0.0000,  0.0000)
  35 Cu     5.501317    6.065983   20.648502    ( 0.0000,  0.0000,  0.0000)
  36 Cu     5.515639   -0.030915   10.037620    ( 0.0000,  0.0000,  0.0000)
  37 Cu     6.838300    2.241957   10.038361    ( 0.0000,  0.0000,  0.0000)
  38 Cu     8.121401    3.021170   12.150082    ( 0.0000,  0.0000,  0.0000)
  39 Cu     6.815400    0.755845   12.149679    ( 0.0000,  0.0000,  0.0000)
  40 Cu     8.132578    1.510559   14.278234    ( 0.0000,  0.0000,  0.0000)
  41 Cu     9.440817    3.775125   14.268637    ( 0.0000,  0.0000,  0.0000)
  42 Cu     5.504098   -0.004613   16.403245    ( 0.0000,  0.0000,  0.0000)
  43 Cu     6.816730    2.264183   16.407976    ( 0.0000,  0.0000,  0.0000)
  44 Cu     8.113114    3.026556   18.553628    ( 0.0000,  0.0000,  0.0000)
  45 Cu     6.806143    0.763216   18.553497    ( 0.0000,  0.0000,  0.0000)
  46 Cu     8.148557    1.500971   20.654047    ( 0.0000,  0.0000,  0.0000)
  47 Cu     9.453486    3.785452   20.645604    ( 0.0000,  0.0000,  0.0000)
  48 Cu     8.143342    4.522704   10.030314    ( 0.0000,  0.0000,  0.0000)
  49 Cu     9.444142    5.279553   12.148158    ( 0.0000,  0.0000,  0.0000)
  50 Cu    10.750397    6.043904   14.266863    ( 0.0000,  0.0000,  0.0000)
  51 Cu     8.125450    4.536072   16.403731    ( 0.0000,  0.0000,  0.0000)
  52 Cu     9.432612    5.289470   18.528114    ( 0.0000,  0.0000,  0.0000)
  53 Cu    10.748665    6.030225   20.646267    ( 0.0000,  0.0000,  0.0000)
  54 Cl     6.147134    2.664301   22.667231    ( 0.0000,  0.0000,  0.0000)
  55 Cl     4.853098    3.366848    8.014863    ( 0.0000,  0.0000,  0.0000)
  56 Cl    10.101076    4.907838   23.055936    ( 0.0000,  0.0000,  0.0000)
  57 Cl     0.915929    1.127744    7.628448    ( 0.0000,  0.0000,  0.0000)
  58 Cl     8.857645    5.743262    7.623330    ( 0.0000,  0.0000,  0.0000)
  59 Cl     2.077612    0.292715   23.096412    ( 0.0000,  0.0000,  0.0000)
  60 Cl     4.840254    4.930032   23.057792    ( 0.0000,  0.0000,  0.0000)
  61 Cl     6.176970    1.105521    7.627990    ( 0.0000,  0.0000,  0.0000)
  62 Cl     3.525825    5.890548    7.624209    ( 0.0000,  0.0000,  0.0000)
  63 Cl     7.377612    0.192715   23.096412    ( 0.0000,  0.0000,  0.0000)
  64 Cl     3.535671    2.617828   22.668468    ( 0.0000,  0.0000,  0.0000)
  65 Cl     7.796854    2.949642    7.999351    ( 0.0000,  0.0000,  0.0000)
  66 Cl     3.285427    1.026889    7.992637    ( 0.0000,  0.0000,  0.0000)
  67 Cl     7.486022    4.935873   23.094060    ( 0.0000,  0.0000,  0.0000)
  68 Cl     8.801022    2.643212   23.059825    ( 0.0000,  0.0000,  0.0000)
  69 Cl     2.215523    3.392105    7.625075    ( 0.0000,  0.0000,  0.0000)

Unit cell:
           periodic     x           y           z      points  spacing
  1. axis:    yes    7.851007    0.000000    0.000000    45     0.1511
  2. axis:    yes    3.925503    6.799171    0.000000    45     0.1511
  3. axis:    yes    0.000000    0.000000   30.683867   175     0.1753

  Lengths:   7.851007   7.851006  30.683867
  Angles:   90.000000  90.000000  60.000001

Effective grid spacing dv^(1/3) = 0.1666

     iter     time        total  log10-change:
                         energy  eigst   dens
iter:   1 14:13:20 -5689.266236
iter:   2 14:14:12 -5976.912738  +1.93  -0.55
iter:   3 14:15:15 -5120.260958  +1.88  -0.54
iter:   4 14:16:24 -6747.362780  +1.60  -0.78
iter:   5 14:17:23 -5050.104214  +0.23  -0.46
iter:   6 14:18:40 -4749.248453  +1.42  -0.90
iter:   7 14:19:31 -4903.419315  -0.25  -1.27
iter:   8 14:20:23 -4733.892789  -0.99  -0.99
iter:   9 14:21:14 -4665.959333  -1.35  -1.22
iter:  10 14:22:08 -4664.096892  -1.36  -1.48
iter:  11 14:23:00 -4676.502662  -1.75  -1.44
iter:  12 14:23:52 -4672.863508  -2.97  -1.44
iter:  13 14:24:44 -4662.672207  -2.56  -1.46
iter:  14 14:25:37 -4673.922451  -1.53  -1.52
iter:  15 14:26:28 -4650.360686  -2.33  -1.38
iter:  16 14:27:14 -4652.971976  -2.30  -1.65
iter:  17 14:27:58 -4649.058117  -2.81  -1.58
iter:  18 14:28:47 -4648.500811  -2.46  -1.72
iter:  19 14:29:40 -4648.204383  -2.73  -1.81
iter:  20 14:30:33 -4648.421437c -3.07  -1.91
iter:  21 14:31:25 -4648.084753c -3.11  -1.99
iter:  22 14:32:18 -4649.723170  -3.18  -2.04
iter:  23 14:33:10 -4647.738316  -3.41  -1.91
iter:  24 14:34:04 -4647.698782  -3.63  -2.29
iter:  25 14:34:55 -4647.657725c -3.89  -2.49
iter:  26 14:35:43 -4647.632021c -4.12  -2.62
iter:  27 14:36:35 -4647.635266c -4.81  -2.84
iter:  28 14:37:36 -4647.623024c -4.21  -2.82
iter:  29 14:38:30 -4647.630287c -4.38  -2.90
iter:  30 14:39:23 -4647.620038c -5.49  -2.86
iter:  31 14:40:15 -4647.614230c -5.04  -2.98
iter:  32 14:41:08 -4647.611070c -4.92  -3.14
iter:  33 14:41:57 -4647.612685c -5.63  -3.35
iter:  34 14:42:50 -4647.610581c -5.54  -3.42
iter:  35 14:43:41 -4647.610081c -6.20  -3.41
iter:  36 14:44:35 -4647.610338c -6.23  -3.69
iter:  37 14:45:28 -4647.610409c -6.90  -3.79
iter:  38 14:46:20 -4647.610624c -6.88  -3.88
iter:  39 14:47:14 -4647.610115c -6.48  -3.90
iter:  40 14:48:06 -4647.610552c -6.86  -3.95
iter:  41 14:49:00 -4647.610330c -6.97  -4.08c
iter:  42 14:49:54 -4647.610588c -7.35  -4.24c
iter:  43 14:50:45 -4647.610498c -8.27c -4.30c

Converged after 43 iterations.

Dipole moment: (-25.848175, -22.153380, -0.217591) |e|*Ang

Energy contributions relative to reference atoms: (reference = -2632037.589752)

Kinetic:       +645.117118
Potential:     -630.779972
External:        +0.000000
XC:            -4660.565892
Entropy (-ST):   -0.897051
Local:           -0.933227
--------------------------
Free energy:   -4648.059023
Extrapolated:  -4647.610498

Showing only first 2 kpts
 Kpt  Band  Eigenvalues  Occupancy
  0   351      1.52662    1.14439
  0   352      1.53504    1.10294
  0   353      1.57161    0.92061
  0   354      1.58626    0.84839

  1   351      1.23878    1.91932
  1   352      1.36738    1.73595
  1   353      1.58184    0.87006
  1   354      1.67733    0.45720


Fermi level: 1.55570

No gap

Forces in eV/Ang:
  0 Cu   -0.04089   -0.25038    0.25417
  1 Cu    0.15316    0.17710    0.45046
  2 Cu    0.08506   -0.32962    0.26822
  3 Cu    0.29050    0.09459    0.62201
  4 Cu   -0.04882    0.01515   -0.05779
  5 Cu   -0.03980    0.00775   -0.09225
  6 Cu   -0.01518   -0.05818   -0.07375
  7 Cu    0.03373   -0.04784    0.06374
  8 Cu    0.02088   -0.01333    0.03634
  9 Cu    0.00623    0.00023   -0.03061
 10 Cu    0.00405    0.00343   -0.01713
 11 Cu    0.00200   -0.00147   -0.02723
 12 Cu   -0.01195   -0.00142   -0.05299
 13 Cu   -0.00583   -0.00231    0.00730
 14 Cu    0.00620   -0.01063    0.00084
 15 Cu   -0.00788   -0.00591   -0.04873
 16 Cu   -0.04124    0.03115   -0.01800
 17 Cu    0.05822    0.00376    0.12609
 18 Cu   -0.01097    0.04261    0.03748
 19 Cu   -0.04272   -0.05633    0.06003
 20 Cu    0.13791    0.01531   -0.14512
 21 Cu   -0.03207   -0.07714   -0.27229
 22 Cu    0.13201   -0.18779   -0.03994
 23 Cu    0.16557    0.09122   -0.18372
 24 Cu   -0.04382   -0.09325    0.14098
 25 Cu    0.15194   -0.08494    0.04663
 26 Cu   -0.03790    0.03325   -0.03223
 27 Cu    0.04554    0.08559   -0.11510
 28 Cu    0.01231   -0.01111    0.05650
 29 Cu   -0.00535   -0.01290   -0.00356
 30 Cu   -0.00705    0.01278   -0.01476
 31 Cu    0.01583    0.01303   -0.03557
 32 Cu   -0.00711   -0.03236    0.14023
 33 Cu   -0.00933    0.04108    0.01028
 34 Cu   -0.04087   -0.03724    0.05353
 35 Cu    0.04753   -0.03055   -0.04731
 36 Cu   -0.00608    0.01711    0.10385
 37 Cu   -0.35034   -0.02378    0.60976
 38 Cu    0.04094   -0.02145    0.00401
 39 Cu   -0.01305    0.01429   -0.13667
 40 Cu   -0.02059   -0.01530    0.01829
 41 Cu   -0.00961    0.00589    0.03596
 42 Cu   -0.00143    0.00177   -0.00148
 43 Cu    0.01295    0.01019    0.04254
 44 Cu    0.07125    0.00759    0.08032
 45 Cu    0.02537   -0.03749    0.05582
 46 Cu   -0.14915    0.10486    0.01354
 47 Cu   -0.16726    0.01518   -0.05120
 48 Cu   -0.17496    0.26889    0.04277
 49 Cu   -0.03451    0.01652   -0.09598
 50 Cu   -0.00197    0.01393    0.00779
 51 Cu   -0.01779   -0.00754    0.00796
 52 Cu    0.03022   -0.03668    0.10790
 53 Cu   -0.16447    0.20648   -0.02299
 54 Cl   -0.11558   -1.36391   -0.46293
 55 Cl    1.06077    1.43086    0.19146
 56 Cl   -0.67823    0.60345    0.20647
 57 Cl    0.24410   -1.92441   -1.49400
 58 Cl   -1.64959   -1.16024   -0.05050
 59 Cl    1.33184    0.69030    0.25253
 60 Cl    0.41017   -0.71751    0.33670
 61 Cl   -1.01754    0.83952   -0.56245
 62 Cl    1.34011   -2.79279   -0.34680
 63 Cl   -1.24820    1.09342    0.20968
 64 Cl    0.40109   -1.20386   -0.48637
 65 Cl   -3.00996    4.50319    0.31634
 66 Cl    1.85153   -1.95733    0.44366
 67 Cl    0.20071    1.31595    0.02615
 68 Cl   -0.32127   -0.49488    0.22384
 69 Cl    1.20894    1.27215   -0.67854

System changes: positions 

Initializing position-dependent things.

Density initialized from wave functions
                                              
                                              
                                              
                                              
                     Cl     Cl    Cl          
                                              
                 Cl    Cl     Cl              
            Cl          CCl   Cu     Cu       
                   Cu     Cu    Cu            
               Cu    Cu     Cu                
                    Cu     Cu    Cu           
                Cu    Cu    Cu                
           Cu    Cu     Cu                    
                Cu     Cu    Cu               
            Cu    Cu     Cu                   
       Cu     Cu    Cu  Cu    Cu     Cu       
                   Cu     Cu    Cu            
               Cu    Cu     Cu                
                    Cu     Cu    Cu           
                Cu    Cu    Cu                
           Cu    Cu     Cu                    
                Cu     Cu    Cu               
            Cu    Cu     Cu                   
       Cu     Cu   CCu          Cl            
              Cl     Cl    Cl                 
               Cl                             
         Cl           Cl                      
                                              
                                              
                                              
                                              

Positions:
   0 Cu     2.882655   -0.020958   10.043047    ( 0.0000,  0.0000,  0.0000)
   1 Cu     4.181133    2.213918    9.984629    ( 0.0000,  0.0000,  0.0000)
   2 Cu     0.271914   -0.006823   10.045844    ( 0.0000,  0.0000,  0.0000)
   3 Cu     1.573787    2.253647   10.063867    ( 0.0000,  0.0000,  0.0000)
   4 Cu     2.904036    3.014225   12.130601    ( 0.0000,  0.0000,  0.0000)
   5 Cu     1.585789    0.751483   12.152583    ( 0.0000,  0.0000,  0.0000)
   6 Cu     5.501040    3.019191   12.121517    ( 0.0000,  0.0000,  0.0000)
   7 Cu     4.204967    0.770387   12.122357    ( 0.0000,  0.0000,  0.0000)
   8 Cu     5.510579    1.510772   14.274899    ( 0.0000,  0.0000,  0.0000)
   9 Cu     6.817979    3.779210   14.271837    ( 0.0000,  0.0000,  0.0000)
  10 Cu     2.895806    1.507232   14.282213    ( 0.0000,  0.0000,  0.0000)
  11 Cu     4.204819    3.779043   14.274589    ( 0.0000,  0.0000,  0.0000)
  12 Cu     2.897882   -0.006257   16.437302    ( 0.0000,  0.0000,  0.0000)
  13 Cu     4.202613    2.263401   16.411518    ( 0.0000,  0.0000,  0.0000)
  14 Cu     0.271402   -0.002075   16.415046    ( 0.0000,  0.0000,  0.0000)
  15 Cu     1.579917    2.267502   16.416260    ( 0.0000,  0.0000,  0.0000)
  16 Cu     2.897253    3.020665   18.534218    ( 0.0000,  0.0000,  0.0000)
  17 Cu     1.576655    0.759717   18.540210    ( 0.0000,  0.0000,  0.0000)
  18 Cu     5.517057    3.018952   18.559219    ( 0.0000,  0.0000,  0.0000)
  19 Cu     4.217202    0.767250   18.568128    ( 0.0000,  0.0000,  0.0000)
  20 Cu     5.487542    1.473307   20.715979    ( 0.0000,  0.0000,  0.0000)
  21 Cu     6.839509    3.823342   20.708025    ( 0.0000,  0.0000,  0.0000)
  22 Cu     2.877632    1.505766   20.650024    ( 0.0000,  0.0000,  0.0000)
  23 Cu     4.185294    3.797444   20.640309    ( 0.0000,  0.0000,  0.0000)
  24 Cu     5.531483    4.555785    9.959309    ( 0.0000,  0.0000,  0.0000)
  25 Cu     2.873569    4.530920   10.030929    ( 0.0000,  0.0000,  0.0000)
  26 Cu     4.211730    5.277431   12.125353    ( 0.0000,  0.0000,  0.0000)
  27 Cu     6.801186    5.271756   12.111151    ( 0.0000,  0.0000,  0.0000)
  28 Cu     8.122340    6.047230   14.246285    ( 0.0000,  0.0000,  0.0000)
  29 Cu     5.516469    6.046196   14.278080    ( 0.0000,  0.0000,  0.0000)
  30 Cu     5.510850    4.532296   16.409726    ( 0.0000,  0.0000,  0.0000)
  31 Cu     2.889218    4.533406   16.405247    ( 0.0000,  0.0000,  0.0000)
  32 Cu     4.204527    5.282530   18.539692    ( 0.0000,  0.0000,  0.0000)
  33 Cu     6.814143    5.267337   18.566006    ( 0.0000,  0.0000,  0.0000)
  34 Cu     8.129848    6.044188   20.652031    ( 0.0000,  0.0000,  0.0000)
  35 Cu     5.503069    6.064857   20.646758    ( 0.0000,  0.0000,  0.0000)
  36 Cu     5.515415   -0.030284   10.041448    ( 0.0000,  0.0000,  0.0000)
  37 Cu     6.825386    2.241080   10.060837    ( 0.0000,  0.0000,  0.0000)
  38 Cu     8.122910    3.020379   12.150230    ( 0.0000,  0.0000,  0.0000)
  39 Cu     6.814919    0.756372   12.144641    ( 0.0000,  0.0000,  0.0000)
  40 Cu     8.131819    1.509995   14.278908    ( 0.0000,  0.0000,  0.0000)
  41 Cu     9.440463    3.775342   14.269962    ( 0.0000,  0.0000,  0.0000)
  42 Cu     5.504045   -0.004548   16.403190    ( 0.0000,  0.0000,  0.0000)
  43 Cu     6.817208    2.264559   16.409544    ( 0.0000,  0.0000,  0.0000)
  44 Cu     8.115741    3.026836   18.556589    ( 0.0000,  0.0000,  0.0000)
  45 Cu     6.807078    0.761834   18.555555    ( 0.0000,  0.0000,  0.0000)
  46 Cu     8.143059    1.504836   20.654546    ( 0.0000,  0.0000,  0.0000)
  47 Cu     9.447321    3.786012   20.643717    ( 0.0000,  0.0000,  0.0000)
  48 Cu     8.136893    4.532616   10.031891    ( 0.0000,  0.0000,  0.0000)
  49 Cu     9.442870    5.280162   12.144620    ( 0.0000,  0.0000,  0.0000)
  50 Cu    10.750324    6.044417   14.267150    ( 0.0000,  0.0000,  0.0000)
  51 Cu     8.124794    4.535794   16.404024    ( 0.0000,  0.0000,  0.0000)
  52 Cu     9.433726    5.288118   18.532091    ( 0.0000,  0.0000,  0.0000)
  53 Cu    10.742602    6.037836   20.645419    ( 0.0000,  0.0000,  0.0000)
  54 Cl     6.142873    2.614025   22.650167    ( 0.0000,  0.0000,  0.0000)
  55 Cl     4.892199    3.419591    8.021921    ( 0.0000,  0.0000,  0.0000)
  56 Cl    10.076075    4.930083   23.063546    ( 0.0000,  0.0000,  0.0000)
  57 Cl     0.924927    1.056807    7.573377    ( 0.0000,  0.0000,  0.0000)
  58 Cl     8.796839    5.700494    7.621469    ( 0.0000,  0.0000,  0.0000)
  59 Cl     2.126705    0.318161   23.105720    ( 0.0000,  0.0000,  0.0000)
  60 Cl     4.855373    4.903584   23.070203    ( 0.0000,  0.0000,  0.0000)
  61 Cl     6.139462    1.136467    7.607258    ( 0.0000,  0.0000,  0.0000)
  62 Cl     3.575223    5.787602    7.611425    ( 0.0000,  0.0000,  0.0000)
  63 Cl     7.331602    0.233021   23.104141    ( 0.0000,  0.0000,  0.0000)
  64 Cl     3.550455    2.573452   22.650540    ( 0.0000,  0.0000,  0.0000)
  65 Cl     7.685903    3.115636    8.011011    ( 0.0000,  0.0000,  0.0000)
  66 Cl     3.353677    0.954739    8.008991    ( 0.0000,  0.0000,  0.0000)
  67 Cl     7.493421    4.984381   23.095024    ( 0.0000,  0.0000,  0.0000)
  68 Cl     8.789179    2.624969   23.068077    ( 0.0000,  0.0000,  0.0000)
  69 Cl     2.260087    3.438999    7.600062    ( 0.0000,  0.0000,  0.0000)

Unit cell:
           periodic     x           y           z      points  spacing
  1. axis:    yes    7.851007    0.000000    0.000000    45     0.1511
  2. axis:    yes    3.925503    6.799171    0.000000    45     0.1511
  3. axis:    yes    0.000000    0.000000   30.683867   175     0.1753

  Lengths:   7.851007   7.851006  30.683867
  Angles:   90.000000  90.000000  60.000001

Effective grid spacing dv^(1/3) = 0.1666

     iter     time        total  log10-change:
                         energy  eigst   dens
iter:   1 14:52:31 -4650.670328  -1.81
iter:   2 14:53:24 -4653.828896  -2.63  -2.21
iter:   3 14:54:18 -4651.089207  -2.73  -1.83
iter:   4 14:55:11 -4651.047574  -3.03  -2.09
iter:   5 14:56:06 -4651.054369c -3.53  -2.08
iter:   6 14:57:00 -4649.886304  -3.83  -2.06
iter:   7 14:57:54 -4649.879846  -3.97  -2.60
iter:   8 14:58:45 -4649.821391c -4.30  -2.61
iter:   9 14:59:36 -4649.860622c -4.67  -2.92
iter:  10 15:00:30 -4649.858478c -4.13  -2.71
iter:  11 15:01:24 -4649.803140c -4.83  -2.69
iter:  12 15:02:18 -4649.804571c -5.44  -3.35
iter:  13 15:03:12 -4649.802308c -5.70  -3.40
iter:  14 15:04:06 -4649.802504c -5.66  -3.42
iter:  15 15:05:00 -4649.802168c -5.88  -3.58
iter:  16 15:05:53 -4649.802369c -6.35  -3.75
iter:  17 15:06:47 -4649.802115c -6.34  -3.80
iter:  18 15:07:40 -4649.801973c -6.48  -3.84
iter:  19 15:08:34 -4649.801927c -7.26  -4.04c
iter:  20 15:09:27 -4649.801891c -6.54  -4.17c
iter:  21 15:10:18 -4649.801868c -7.20  -4.40c
iter:  22 15:11:13 -4649.801742c -7.94c -4.49c

Converged after 22 iterations.

Dipole moment: (-35.460218, -23.520474, -0.061848) |e|*Ang

Energy contributions relative to reference atoms: (reference = -2632037.589752)

Kinetic:       +628.511363
Potential:     -619.672004
External:        +0.000000
XC:            -4657.414060
Entropy (-ST):   -0.959383
Local:           -0.747350
--------------------------
Free energy:   -4650.281434
Extrapolated:  -4649.801742

Showing only first 2 kpts
 Kpt  Band  Eigenvalues  Occupancy
  0   351      1.39409    1.29090
  0   352      1.43806    1.07957
  0   353      1.47550    0.89295
  0   354      1.50632    0.74422

  1   351      1.26817    1.73021
  1   352      1.35466    1.45953
  1   353      1.48795    0.83187
  1   354      1.57913    0.44498


Fermi level: 1.45400

No gap

Forces in eV/Ang:
  0 Cu   -0.07316   -0.14716    0.26201
  1 Cu    0.11370    0.16194    0.24439
  2 Cu    0.06944   -0.15547    0.00584
  3 Cu    0.07547    0.05531    0.11616
  4 Cu   -0.03446    0.02173   -0.00017
  5 Cu   -0.03108   -0.00329   -0.03298
  6 Cu   -0.02030   -0.02824    0.00950
  7 Cu    0.02307   -0.04573    0.08757
  8 Cu    0.01757   -0.01177    0.03147
  9 Cu    0.00314    0.00320   -0.02924
 10 Cu    0.00295    0.00174   -0.01964
 11 Cu    0.00002   -0.00139   -0.02855
 12 Cu   -0.01170    0.00342   -0.03937
 13 Cu   -0.00606   -0.00332    0.01184
 14 Cu    0.00448   -0.01011    0.01785
 15 Cu   -0.00415   -0.00824   -0.03258
 16 Cu   -0.03247    0.01846   -0.01909
 17 Cu    0.04356    0.00598    0.09842
 18 Cu   -0.00870    0.02287   -0.00163
 19 Cu   -0.02393   -0.05030    0.03516
 20 Cu    0.08203   -0.02057   -0.23512
 21 Cu   -0.04799   -0.07590   -0.18438
 22 Cu    0.07711   -0.15577   -0.06563
 23 Cu    0.10798    0.09806   -0.07049
 24 Cu   -0.05765   -0.04932    0.21546
 25 Cu    0.09813   -0.06192   -0.04010
 26 Cu   -0.02144    0.01656   -0.00140
 27 Cu    0.03061    0.05865   -0.04812
 28 Cu    0.01213   -0.01071    0.05321
 29 Cu   -0.00419   -0.00948   -0.00682
 30 Cu   -0.00848    0.00990   -0.00722
 31 Cu    0.01328    0.01428   -0.01714
 32 Cu   -0.00834   -0.01541    0.09589
 33 Cu   -0.00338    0.04086   -0.00880
 34 Cu   -0.03645   -0.04968    0.05230
 35 Cu    0.00180   -0.02490    0.04541
 36 Cu    0.05195    0.02878   -0.06314
 37 Cu   -0.11388   -0.06519    0.18139
 38 Cu    0.02919   -0.00017    0.04596
 39 Cu   -0.00922    0.00486   -0.07273
 40 Cu   -0.01583   -0.01613    0.01479
 41 Cu   -0.00544    0.00858    0.03008
 42 Cu    0.00232   -0.00049    0.01486
 43 Cu    0.00994    0.00850    0.04358
 44 Cu    0.05954   -0.00094    0.04131
 45 Cu    0.02186   -0.02672    0.02731
 46 Cu   -0.09662    0.06481    0.04774
 47 Cu   -0.10168    0.00522    0.00176
 48 Cu   -0.09745    0.09653   -0.11008
 49 Cu   -0.04236    0.00270   -0.08586
 50 Cu   -0.00429    0.00998   -0.01026
 51 Cu   -0.01271   -0.00634    0.01914
 52 Cu    0.02074   -0.02346    0.08157
 53 Cu   -0.11218    0.15297    0.04644
 54 Cl    0.04952   -0.77940   -0.46536
 55 Cl    0.71933    0.86736    0.27659
 56 Cl   -0.45146    0.38131    0.18078
 57 Cl    0.10517   -1.17031   -0.89617
 58 Cl   -0.88536   -0.68582   -0.13669
 59 Cl    0.85884    0.32883    0.26723
 60 Cl    0.25814   -0.34494    0.25776
 61 Cl   -0.49270    0.04496   -0.42141
 62 Cl    0.79915   -1.01053   -0.30447
 63 Cl   -0.86960    0.60681    0.19078
 64 Cl    0.24687   -0.80832   -0.49936
 65 Cl   -1.36028    2.53235    0.62493
 66 Cl    0.69441   -0.77492    0.37711
 67 Cl    0.17997    0.90853   -0.02028
 68 Cl   -0.21138   -0.28631    0.23381
 69 Cl    0.40403    0.40575   -0.38597

System changes: positions 

Initializing position-dependent things.

Density initialized from wave functions
                                              
                                              
                                              
                                              
                      Cl    Cl    Cl          
                                              
                 Cl    Cl     Cl              
            Cl          CCl   Cu     Cu       
                   Cu     Cu    Cu            
               Cu    Cu     Cu                
                    Cu     Cu    Cu           
                Cu    Cu    Cu                
           Cu    Cu     Cu                    
                Cu     Cu    Cu               
            Cu    Cu    CCu          Cu       
       Cu     Cu    Cu        Cu              
                   Cu     Cu    Cu            
               Cu    Cu     Cu                
                    Cu     Cu    Cu           
                Cu    Cu    Cu                
           Cu    Cu     Cu                    
                Cu     Cu    Cu               
            Cu    Cu     Cu                   
       Cu     Cu   CCu          Cl            
              Cl     Cl    Cl                 
                Cl                            
         Cl           Cl                      
                                              
                                              
                                              
                                              

Positions:
   0 Cu     2.881148   -0.030187   10.052416    ( 0.0000,  0.0000,  0.0000)
   1 Cu     4.186778    2.220446   10.001234    ( 0.0000,  0.0000,  0.0000)
   2 Cu     0.275050   -0.018973   10.055731    ( 0.0000,  0.0000,  0.0000)
   3 Cu     1.584495    2.257134   10.086795    ( 0.0000,  0.0000,  0.0000)
   4 Cu     2.902236    3.014784   12.128471    ( 0.0000,  0.0000,  0.0000)
   5 Cu     1.584322    0.751768   12.149182    ( 0.0000,  0.0000,  0.0000)
   6 Cu     5.500481    3.017047   12.118798    ( 0.0000,  0.0000,  0.0000)
   7 Cu     4.206211    0.768623   12.124706    ( 0.0000,  0.0000,  0.0000)
   8 Cu     5.511348    1.510280   14.276239    ( 0.0000,  0.0000,  0.0000)
   9 Cu     6.818209    3.779218   14.270708    ( 0.0000,  0.0000,  0.0000)
  10 Cu     2.895955    1.507359   14.281582    ( 0.0000,  0.0000,  0.0000)
  11 Cu     4.204893    3.778988   14.273585    ( 0.0000,  0.0000,  0.0000)
  12 Cu     2.897442   -0.006309   16.435348    ( 0.0000,  0.0000,  0.0000)
  13 Cu     4.202398    2.263316   16.411787    ( 0.0000,  0.0000,  0.0000)
  14 Cu     0.271630   -0.002466   16.415077    ( 0.0000,  0.0000,  0.0000)
  15 Cu     1.579626    2.267284   16.414463    ( 0.0000,  0.0000,  0.0000)
  16 Cu     2.895733    3.021814   18.533554    ( 0.0000,  0.0000,  0.0000)
  17 Cu     1.578801    0.759855   18.544858    ( 0.0000,  0.0000,  0.0000)
  18 Cu     5.516652    3.020522   18.560601    ( 0.0000,  0.0000,  0.0000)
  19 Cu     4.215627    0.765174   18.570341    ( 0.0000,  0.0000,  0.0000)
  20 Cu     5.492625    1.473872   20.710629    ( 0.0000,  0.0000,  0.0000)
  21 Cu     6.838326    3.820499   20.697988    ( 0.0000,  0.0000,  0.0000)
  22 Cu     2.882498    1.498844   20.648551    ( 0.0000,  0.0000,  0.0000)
  23 Cu     4.191397    3.800806   20.633537    ( 0.0000,  0.0000,  0.0000)
  24 Cu     5.529867    4.552348    9.964506    ( 0.0000,  0.0000,  0.0000)
  25 Cu     2.879169    4.527789   10.032648    ( 0.0000,  0.0000,  0.0000)
  26 Cu     4.210333    5.278657   12.124165    ( 0.0000,  0.0000,  0.0000)
  27 Cu     6.802864    5.274911   12.106908    ( 0.0000,  0.0000,  0.0000)
  28 Cu     8.122794    6.046820   14.248367    ( 0.0000,  0.0000,  0.0000)
  29 Cu     5.516272    6.045720   14.277949    ( 0.0000,  0.0000,  0.0000)
  30 Cu     5.510590    4.532767   16.409182    ( 0.0000,  0.0000,  0.0000)
  31 Cu     2.889801    4.533887   16.403936    ( 0.0000,  0.0000,  0.0000)
  32 Cu     4.204264    5.281338   18.544861    ( 0.0000,  0.0000,  0.0000)
  33 Cu     6.813799    5.268852   18.566385    ( 0.0000,  0.0000,  0.0000)
  34 Cu     8.128341    6.042816   20.654004    ( 0.0000,  0.0000,  0.0000)
  35 Cu     5.504821    6.063730   20.645014    ( 0.0000,  0.0000,  0.0000)
  36 Cu     5.515191   -0.029653   10.045276    ( 0.0000,  0.0000,  0.0000)
  37 Cu     6.812472    2.240204   10.083314    ( 0.0000,  0.0000,  0.0000)
  38 Cu     8.124419    3.019589   12.150378    ( 0.0000,  0.0000,  0.0000)
  39 Cu     6.814438    0.756899   12.139603    ( 0.0000,  0.0000,  0.0000)
  40 Cu     8.131060    1.509431   14.279583    ( 0.0000,  0.0000,  0.0000)
  41 Cu     9.440109    3.775559   14.271288    ( 0.0000,  0.0000,  0.0000)
  42 Cu     5.503992   -0.004483   16.403136    ( 0.0000,  0.0000,  0.0000)
  43 Cu     6.817685    2.264935   16.411112    ( 0.0000,  0.0000,  0.0000)
  44 Cu     8.118367    3.027115   18.559550    ( 0.0000,  0.0000,  0.0000)
  45 Cu     6.808013    0.760452   18.557613    ( 0.0000,  0.0000,  0.0000)
  46 Cu     8.137561    1.508701   20.655045    ( 0.0000,  0.0000,  0.0000)
  47 Cu     9.441155    3.786571   20.641830    ( 0.0000,  0.0000,  0.0000)
  48 Cu     8.130444    4.542527   10.033467    ( 0.0000,  0.0000,  0.0000)
  49 Cu     9.441598    5.280771   12.141082    ( 0.0000,  0.0000,  0.0000)
  50 Cu    10.750252    6.044931   14.267437    ( 0.0000,  0.0000,  0.0000)
  51 Cu     8.124139    4.535516   16.404318    ( 0.0000,  0.0000,  0.0000)
  52 Cu     9.434840    5.286766   18.536069    ( 0.0000,  0.0000,  0.0000)
  53 Cu    10.736540    6.045447   20.644572    ( 0.0000,  0.0000,  0.0000)
  54 Cl     6.138613    2.563750   22.633103    ( 0.0000,  0.0000,  0.0000)
  55 Cl     4.931300    3.472335    8.028978    ( 0.0000,  0.0000,  0.0000)
  56 Cl    10.051074    4.952327   23.071157    ( 0.0000,  0.0000,  0.0000)
  57 Cl     0.933925    0.985871    7.518306    ( 0.0000,  0.0000,  0.0000)
  58 Cl     8.736032    5.657726    7.619607    ( 0.0000,  0.0000,  0.0000)
  59 Cl     2.175799    0.343606   23.115029    ( 0.0000,  0.0000,  0.0000)
  60 Cl     4.870493    4.877135   23.082614    ( 0.0000,  0.0000,  0.0000)
  61 Cl     6.101954    1.167413    7.586525    ( 0.0000,  0.0000,  0.0000)
  62 Cl     3.624621    5.684656    7.598641    ( 0.0000,  0.0000,  0.0000)
  63 Cl     7.285591    0.273326   23.111870    ( 0.0000,  0.0000,  0.0000)
  64 Cl     3.565240    2.529077   22.632611    ( 0.0000,  0.0000,  0.0000)
  65 Cl     7.574952    3.281629    8.022672    ( 0.0000,  0.0000,  0.0000)
  66 Cl     3.421927    0.882589    8.025344    ( 0.0000,  0.0000,  0.0000)
  67 Cl     7.500819    5.032889   23.095988    ( 0.0000,  0.0000,  0.0000)
  68 Cl     8.777337    2.606727   23.076328    ( 0.0000,  0.0000,  0.0000)
  69 Cl     2.304650    3.485892    7.575050    ( 0.0000,  0.0000,  0.0000)

Unit cell:
           periodic     x           y           z      points  spacing
  1. axis:    yes    7.851007    0.000000    0.000000    45     0.1511
  2. axis:    yes    3.925503    6.799171    0.000000    45     0.1511
  3. axis:    yes    0.000000    0.000000   30.683867   175     0.1753

  Lengths:   7.851007   7.851006  30.683867
  Angles:   90.000000  90.000000  60.000001

Effective grid spacing dv^(1/3) = 0.1666

     iter     time        total  log10-change:
                         energy  eigst   dens
iter:   1 15:12:37 -4651.091281  -1.95
iter:   2 15:13:31 -4653.753388  -2.72  -2.35
iter:   3 15:14:19 -4650.932584  -3.39  -1.90
iter:   4 15:15:04 -4650.856378  -4.22  -2.51
iter:   5 15:15:49 -4650.967421c -3.82  -2.58
iter:   6 15:16:36 -4651.086844c -4.20  -2.43
iter:   7 15:17:23 -4651.153501c -3.62  -2.34
iter:   8 15:18:22 -4650.850310c -4.64  -2.29
iter:   9 15:19:15 -4650.788249  -4.53  -2.62
iter:  10 15:20:08 -4650.782783c -4.92  -2.93
iter:  11 15:21:02 -4650.777761c -4.56  -2.96
iter:  12 15:21:55 -4650.771953c -5.54  -3.13
iter:  13 15:22:49 -4650.772694c -5.24  -3.32
iter:  14 15:23:42 -4650.771109c -5.58  -3.27
iter:  15 15:24:35 -4650.769472c -6.39  -3.40
iter:  16 15:25:29 -4650.769324c -6.48  -3.72
iter:  17 15:26:21 -4650.769510c -6.50  -3.88
iter:  18 15:27:15 -4650.769133c -6.83  -4.03c
iter:  19 15:28:08 -4650.769208c -6.83  -3.96
iter:  20 15:29:02 -4650.769276c -6.99  -4.08c
iter:  21 15:29:53 -4650.769323c -7.50c -4.18c

Converged after 21 iterations.

Dipole moment: (-40.102945, -24.233610, 0.004735) |e|*Ang

Energy contributions relative to reference atoms: (reference = -2632037.589752)

Kinetic:       +622.110830
Potential:     -615.704894
External:        +0.000000
XC:            -4655.959929
Entropy (-ST):   -0.986067
Local:           -0.722296
--------------------------
Free energy:   -4651.262357
Extrapolated:  -4650.769323

Showing only first 2 kpts
 Kpt  Band  Eigenvalues  Occupancy
  0   351      1.33850    1.34989
  0   352      1.38945    1.11013
  0   353      1.43038    0.90620
  0   354      1.47325    0.70098

  1   351      1.35195    1.28956
  1   352      1.39938    1.06083
  1   353      1.49106    0.62220
  1   354      1.54382    0.42078


Fermi level: 1.41156

No gap

Forces in eV/Ang:
  0 Cu   -0.11861   -0.03967    0.27229
  1 Cu    0.06597    0.13494    0.11617
  2 Cu    0.05508   -0.00192   -0.14665
  3 Cu   -0.06315    0.01512   -0.17623
  4 Cu   -0.00792    0.03251    0.06757
  5 Cu   -0.01988   -0.01937    0.03300
  6 Cu   -0.03049    0.00895    0.09417
  7 Cu    0.01152   -0.04208    0.10925
  8 Cu    0.01590   -0.00907    0.02210
  9 Cu    0.00150    0.00417   -0.03068
 10 Cu    0.00009    0.00192   -0.02479
 11 Cu   -0.00234   -0.00237   -0.02951
 12 Cu   -0.01211    0.00736   -0.02849
 13 Cu   -0.00644   -0.00335    0.01212
 14 Cu    0.00404   -0.00856    0.03219
 15 Cu   -0.00153   -0.01055   -0.01974
 16 Cu   -0.02295    0.00753   -0.02200
 17 Cu    0.02820    0.00752    0.07223
 18 Cu   -0.00492    0.00364   -0.04186
 19 Cu   -0.00456   -0.04533    0.01055
 20 Cu    0.01555   -0.07152   -0.37201
 21 Cu   -0.06073   -0.06843   -0.12120
 22 Cu    0.01667   -0.12937   -0.12726
 23 Cu    0.05410    0.10846    0.02571
 24 Cu   -0.05031    0.02585    0.38069
 25 Cu    0.03777   -0.04016   -0.04244
 26 Cu   -0.00393   -0.00556    0.02997
 27 Cu    0.01101    0.02884    0.02104
 28 Cu    0.01155   -0.01177    0.04573
 29 Cu   -0.00388   -0.00501   -0.01261
 30 Cu   -0.00987    0.00720   -0.00054
 31 Cu    0.00991    0.01508   -0.00281
 32 Cu   -0.01021    0.00173    0.05106
 33 Cu    0.00367    0.03836   -0.02751
 34 Cu   -0.03262   -0.06069    0.03791
 35 Cu   -0.04243   -0.02223    0.10750
 36 Cu    0.10625    0.04086   -0.12663
 37 Cu    0.07669   -0.10189   -0.11777
 38 Cu    0.01286    0.02273    0.08231
 39 Cu   -0.00580   -0.01073   -0.00113
 40 Cu   -0.01158   -0.01632    0.00521
 41 Cu   -0.00181    0.00971    0.01800
 42 Cu    0.00492   -0.00365    0.02602
 43 Cu    0.00792    0.00692    0.04193
 44 Cu    0.04536   -0.00906    0.00238
 45 Cu    0.01921   -0.01549   -0.00012
 46 Cu   -0.03532    0.02951    0.06450
 47 Cu   -0.04223   -0.00604    0.04490
 48 Cu   -0.01003   -0.02110   -0.08505
 49 Cu   -0.04568   -0.00710   -0.07190
 50 Cu   -0.00532    0.00702   -0.02943
 51 Cu   -0.00710   -0.00489    0.02730
 52 Cu    0.01069   -0.01040    0.05497
 53 Cu   -0.06200    0.09579    0.09247
 54 Cl    0.17559   -0.19669   -0.41472
 55 Cl    0.21478    0.22116    0.27092
 56 Cl   -0.22365    0.14935    0.18053
 57 Cl    0.10614   -0.65353   -0.50595
 58 Cl   -0.32370   -0.18397   -0.37086
 59 Cl    0.41062    0.02925    0.33088
 60 Cl    0.06335   -0.08932    0.18823
 61 Cl   -0.11360   -0.28146   -0.31751
 62 Cl    0.49045    0.24061   -0.40693
 63 Cl   -0.50636    0.16674    0.22165
 64 Cl    0.09615   -0.39962   -0.45580
 65 Cl   -0.35932    0.79085    0.61717
 66 Cl   -0.19578    0.10720    0.33379
 67 Cl    0.20992    0.56896   -0.02828
 68 Cl   -0.09908   -0.11917    0.25545
 69 Cl    0.12958   -0.17246   -0.30092

System changes: positions 

Initializing position-dependent things.

Density initialized from wave functions
                                              
                                              
                                              
                                              
                      Cl    Cl    Cl          
                                              
                 Cl    Cl     Cl              
            Cl          CCl   Cu     Cu       
                   Cu     Cu    Cu            
               Cu    Cu     Cu                
                    Cu     Cu    Cu           
               Cu     Cu     Cu               
           Cu    Cu     Cu                    
                Cu     Cu    Cu               
            Cu    Cu    CCu   Cu     Cu       
       Cu     Cu    Cu                        
                   Cu     Cu    Cu            
               Cu    Cu     Cu                
                    Cu     Cu    Cu           
                Cu    Cu     Cu               
           Cu    Cu     Cu                    
                Cu     Cu    Cu               
            Cu    Cu     Cu                   
       Cu     Cu   CCu         Cl             
              Cl     Cl    Cl                 
               Cl                             
         Cl           Cl                      
                                              
                                              
                                              
                                              

Positions:
   0 Cu     2.867052   -0.035380   10.085101    ( 0.0000,  0.0000,  0.0000)
   1 Cu     4.194882    2.236747   10.015870    ( 0.0000,  0.0000,  0.0000)
   2 Cu     0.281729   -0.019866   10.038947    ( 0.0000,  0.0000,  0.0000)
   3 Cu     1.577622    2.259111   10.067231    ( 0.0000,  0.0000,  0.0000)
   4 Cu     2.901202    3.018656   12.136338    ( 0.0000,  0.0000,  0.0000)
   5 Cu     1.581892    0.749496   12.152894    ( 0.0000,  0.0000,  0.0000)
   6 Cu     5.496847    3.017987   12.129776    ( 0.0000,  0.0000,  0.0000)
   7 Cu     4.207640    0.763556   12.137743    ( 0.0000,  0.0000,  0.0000)
   8 Cu     5.513269    1.509181   14.278924    ( 0.0000,  0.0000,  0.0000)
   9 Cu     6.818399    3.779711   14.267022    ( 0.0000,  0.0000,  0.0000)
  10 Cu     2.895974    1.507593   14.278619    ( 0.0000,  0.0000,  0.0000)
  11 Cu     4.204620    3.778705   14.270043    ( 0.0000,  0.0000,  0.0000)
  12 Cu     2.895987   -0.005443   16.431875    ( 0.0000,  0.0000,  0.0000)
  13 Cu     4.201626    2.262915   16.413235    ( 0.0000,  0.0000,  0.0000)
  14 Cu     0.272120   -0.003499   16.418881    ( 0.0000,  0.0000,  0.0000)
  15 Cu     1.579430    2.266025   16.412032    ( 0.0000,  0.0000,  0.0000)
  16 Cu     2.892938    3.022766   18.530919    ( 0.0000,  0.0000,  0.0000)
  17 Cu     1.582250    0.760751   18.553646    ( 0.0000,  0.0000,  0.0000)
  18 Cu     5.516049    3.021038   18.555731    ( 0.0000,  0.0000,  0.0000)
  19 Cu     4.215002    0.759705   18.571708    ( 0.0000,  0.0000,  0.0000)
  20 Cu     5.494741    1.465453   20.666384    ( 0.0000,  0.0000,  0.0000)
  21 Cu     6.831086    3.812259   20.683118    ( 0.0000,  0.0000,  0.0000)
  22 Cu     2.884734    1.483179   20.633435    ( 0.0000,  0.0000,  0.0000)
  23 Cu     4.198124    3.813805   20.636203    ( 0.0000,  0.0000,  0.0000)
  24 Cu     5.523835    4.555213   10.009768    ( 0.0000,  0.0000,  0.0000)
  25 Cu     2.883939    4.522872   10.027728    ( 0.0000,  0.0000,  0.0000)
  26 Cu     4.209792    5.278067   12.127640    ( 0.0000,  0.0000,  0.0000)
  27 Cu     6.804257    5.278490   12.109162    ( 0.0000,  0.0000,  0.0000)
  28 Cu     8.124183    6.045407   14.253884    ( 0.0000,  0.0000,  0.0000)
  29 Cu     5.515802    6.045102   14.276451    ( 0.0000,  0.0000,  0.0000)
  30 Cu     5.509410    4.533644   16.409088    ( 0.0000,  0.0000,  0.0000)
  31 Cu     2.891004    4.535695   16.403532    ( 0.0000,  0.0000,  0.0000)
  32 Cu     4.203044    5.281476   18.551177    ( 0.0000,  0.0000,  0.0000)
  33 Cu     6.814214    5.273467   18.563155    ( 0.0000,  0.0000,  0.0000)
  34 Cu     8.124405    6.035570   20.658591    ( 0.0000,  0.0000,  0.0000)
  35 Cu     5.499904    6.061042   20.657619    ( 0.0000,  0.0000,  0.0000)
  36 Cu     5.527732   -0.024791   10.030525    ( 0.0000,  0.0000,  0.0000)
  37 Cu     6.820824    2.228117   10.070632    ( 0.0000,  0.0000,  0.0000)
  38 Cu     8.126021    3.022231   12.160111    ( 0.0000,  0.0000,  0.0000)
  39 Cu     6.813727    0.755660   12.139194    ( 0.0000,  0.0000,  0.0000)
  40 Cu     8.129650    1.507472   14.280235    ( 0.0000,  0.0000,  0.0000)
  41 Cu     9.439875    3.776718   14.273487    ( 0.0000,  0.0000,  0.0000)
  42 Cu     5.504571   -0.004911   16.406207    ( 0.0000,  0.0000,  0.0000)
  43 Cu     6.818646    2.265772   16.416153    ( 0.0000,  0.0000,  0.0000)
  44 Cu     8.123870    3.026060   18.559993    ( 0.0000,  0.0000,  0.0000)
  45 Cu     6.810335    0.758547   18.557711    ( 0.0000,  0.0000,  0.0000)
  46 Cu     8.133087    1.512399   20.662693    ( 0.0000,  0.0000,  0.0000)
  47 Cu     9.435828    3.785888   20.647031    ( 0.0000,  0.0000,  0.0000)
  48 Cu     8.128906    4.540578   10.023506    ( 0.0000,  0.0000,  0.0000)
  49 Cu     9.436132    5.279966   12.132393    ( 0.0000,  0.0000,  0.0000)
  50 Cu    10.749619    6.045788   14.263977    ( 0.0000,  0.0000,  0.0000)
  51 Cu     8.123264    4.534924   16.407559    ( 0.0000,  0.0000,  0.0000)
  52 Cu     9.436163    5.285463   18.542781    ( 0.0000,  0.0000,  0.0000)
  53 Cu    10.728882    6.057182   20.655451    ( 0.0000,  0.0000,  0.0000)
  54 Cl     6.159125    2.537755   22.583169    ( 0.0000,  0.0000,  0.0000)
  55 Cl     4.958820    3.501356    8.061373    ( 0.0000,  0.0000,  0.0000)
  56 Cl    10.023280    4.971191   23.092903    ( 0.0000,  0.0000,  0.0000)
  57 Cl     0.946958    0.904768    7.455510    ( 0.0000,  0.0000,  0.0000)
  58 Cl     8.694455    5.633646    7.575688    ( 0.0000,  0.0000,  0.0000)
  59 Cl     2.227004    0.348457   23.154632    ( 0.0000,  0.0000,  0.0000)
  60 Cl     4.878806    4.865132   23.105533    ( 0.0000,  0.0000,  0.0000)
  61 Cl     6.086476    1.135855    7.547875    ( 0.0000,  0.0000,  0.0000)
  62 Cl     3.685275    5.707440    7.549863    ( 0.0000,  0.0000,  0.0000)
  63 Cl     7.223243    0.295236   23.138481    ( 0.0000,  0.0000,  0.0000)
  64 Cl     3.577411    2.479429   22.577777    ( 0.0000,  0.0000,  0.0000)
  65 Cl     7.526416    3.384167    8.096228    ( 0.0000,  0.0000,  0.0000)
  66 Cl     3.402538    0.891299    8.065678    ( 0.0000,  0.0000,  0.0000)
  67 Cl     7.526027    5.102770   23.092699    ( 0.0000,  0.0000,  0.0000)
  68 Cl     8.764982    2.591647   23.106961    ( 0.0000,  0.0000,  0.0000)
  69 Cl     2.322403    3.468087    7.538126    ( 0.0000,  0.0000,  0.0000)

Unit cell:
           periodic     x           y           z      points  spacing
  1. axis:    yes    7.851007    0.000000    0.000000    45     0.1511
  2. axis:    yes    3.925503    6.799171    0.000000    45     0.1511
  3. axis:    yes    0.000000    0.000000   30.683867   175     0.1753

  Lengths:   7.851007   7.851006  30.683867
  Angles:   90.000000  90.000000  60.000001

Effective grid spacing dv^(1/3) = 0.1666

     iter     time        total  log10-change:
                         energy  eigst   dens
iter:   1 15:31:17 -4652.503700  -2.00
iter:   2 15:32:09 -4666.350315  -2.20  -2.08
iter:   3 15:33:04 -4651.703324  -2.52  -1.57
iter:   4 15:33:58 -4651.410024  -3.63  -2.32
iter:   5 15:36:04 -4651.432440c -4.24  -2.58
iter:   6 15:36:58 -4652.104562  -3.50  -2.55
iter:   7 15:37:52 -4651.813757  -4.46  -2.15
iter:   8 15:38:47 -4651.404565  -4.30  -2.24
iter:   9 15:39:40 -4651.399420  -5.40  -2.60
iter:  10 15:40:34 -4651.386474c -4.48  -2.61
iter:  11 15:41:28 -4651.328648c -4.39  -2.65
iter:  12 15:42:22 -4651.321170c -5.49  -2.99
iter:  13 15:43:17 -4651.315188c -5.31  -3.12
iter:  14 15:44:10 -4651.318119c -5.56  -3.38
iter:  15 15:45:06 -4651.314003c -5.85  -3.23
iter:  16 15:46:00 -4651.313353c -6.31  -3.77
iter:  17 15:46:54 -4651.313703c -6.40  -3.84
iter:  18 15:47:48 -4651.313686c -6.70  -4.02c
iter:  19 15:48:42 -4651.313658c -6.73  -4.11c
iter:  20 15:49:35 -4651.313726c -7.22  -4.24c
iter:  21 15:50:29 -4651.313683c -7.39  -4.26c
iter:  22 15:51:24 -4651.313705c -7.54c -4.19c

Converged after 22 iterations.

Dipole moment: (-42.053665, -24.691355, 0.027146) |e|*Ang

Energy contributions relative to reference atoms: (reference = -2632037.589752)

Kinetic:       +619.105879
Potential:     -613.867124
External:        +0.000000
XC:            -4655.381025
Entropy (-ST):   -0.967099
Local:           -0.687886
--------------------------
Free energy:   -4651.797254
Extrapolated:  -4651.313705

Showing only first 2 kpts
 Kpt  Band  Eigenvalues  Occupancy
  0   351      1.30699    1.37866
  0   352      1.36183    1.12370
  0   353      1.40701    0.89878
  0   354      1.45592    0.66707

  1   351      1.32859    1.28260
  1   352      1.40797    0.89400
  1   353      1.48556    0.54236
  1   354      1.54203    0.34920


Fermi level: 1.38669

No gap

Forces in eV/Ang:
  0 Cu    0.00690    0.06819    0.12383
  1 Cu    0.02933    0.01354    0.06449
  2 Cu   -0.00723    0.01025   -0.03314
  3 Cu   -0.00641    0.02081   -0.10860
  4 Cu   -0.04070   -0.00447    0.01016
  5 Cu   -0.04752    0.03477    0.01240
  6 Cu    0.02443   -0.03894    0.08341
  7 Cu    0.03056   -0.01358    0.05550
  8 Cu    0.01245   -0.00676    0.03988
  9 Cu    0.00074    0.00379    0.01660
 10 Cu   -0.00213   -0.00034    0.00045
 11 Cu   -0.00584    0.00415    0.02180
 12 Cu   -0.01168    0.00828   -0.01074
 13 Cu   -0.00618   -0.00428   -0.00402
 14 Cu    0.00266   -0.00267    0.02949
 15 Cu    0.00020   -0.01061   -0.00608
 16 Cu    0.00565    0.01297   -0.00506
 17 Cu   -0.00489   -0.01011    0.03473
 18 Cu   -0.02207    0.01815   -0.07994
 19 Cu   -0.00928   -0.04933   -0.08397
 20 Cu   -0.04267   -0.03831   -0.30686
 21 Cu   -0.03796   -0.01996   -0.12894
 22 Cu   -0.05766   -0.08389   -0.21038
 23 Cu    0.00498    0.07684    0.07399
 24 Cu   -0.06910    0.02336    0.33076
 25 Cu   -0.02072   -0.02147   -0.05217
 26 Cu   -0.03432    0.02960    0.02759
 27 Cu    0.03849   -0.01254    0.12729
 28 Cu    0.01174   -0.01452    0.03741
 29 Cu   -0.00872   -0.00283    0.00673
 30 Cu   -0.00660    0.00533   -0.00735
 31 Cu    0.00113    0.01340    0.00550
 32 Cu   -0.00888    0.00990    0.03809
 33 Cu   -0.00910    0.02222   -0.00212
 34 Cu   -0.03978   -0.08037    0.01724
 35 Cu   -0.06424   -0.02079    0.10683
 36 Cu    0.02706    0.02558   -0.14984
 37 Cu    0.03419   -0.13592   -0.04855
 38 Cu    0.00752   -0.00849    0.00028
 39 Cu    0.00287    0.00311   -0.03998
 40 Cu   -0.00851   -0.01297    0.01804
 41 Cu   -0.00078    0.01607    0.02145
 42 Cu    0.01073   -0.00838    0.02319
 43 Cu    0.00842    0.00156    0.01405
 44 Cu    0.02663   -0.00823   -0.00822
 45 Cu    0.04279   -0.01997   -0.03635
 46 Cu    0.02141    0.00652    0.06879
 47 Cu    0.01411   -0.03050    0.05828
 48 Cu    0.10762    0.10858    0.15926
 49 Cu   -0.03317    0.00251   -0.07871
 50 Cu   -0.00663   -0.00348   -0.02469
 51 Cu    0.00083   -0.00241    0.02222
 52 Cu    0.01175   -0.00266    0.05183
 53 Cu   -0.00948    0.01858    0.07884
 54 Cl    0.14135    0.27150   -0.50533
 55 Cl   -0.28744   -0.01574    0.31687
 56 Cl    0.14958   -0.17713    0.21553
 57 Cl   -0.14546   -0.27350   -0.57927
 58 Cl    0.06965    0.18146   -0.54074
 59 Cl   -0.05274   -0.01708    0.47319
 60 Cl   -0.15267   -0.11239    0.09340
 61 Cl   -0.21582   -0.03866   -0.21165
 62 Cl    0.18235    0.15561   -0.54645
 63 Cl   -0.23923   -0.11952    0.27737
 64 Cl    0.06562    0.00536   -0.45973
 65 Cl    0.11363   -0.25443    0.44664
 66 Cl    0.04940    0.25587    0.67042
 67 Cl    0.16262    0.35915   -0.03099
 68 Cl    0.09584   -0.03050    0.30986
 69 Cl    0.20294   -0.07257   -0.26960

System changes: positions 

Initializing position-dependent things.

Density initialized from wave functions
                                              
                                              
                                              
                                              
                      Cl    Cl    Cl          
                                              
                              Cl              
            Cl   Cl    ClCl   Cu     Cu       
                   Cu     Cu    Cu            
               Cu    Cu     Cu                
                    Cu     Cu    Cu           
               Cu     Cu     Cu               
           Cu    Cu     Cu                    
                Cu     Cu    Cu               
            Cu    Cu    CCu   Cu     Cu       
       Cu     Cu    Cu                        
                   Cu     Cu    Cu            
               Cu   CCu     Cu   Cu           
                           Cu                 
                Cu    Cu     Cu               
           Cu   CCu    CCu   Cu               
                                              
            Cu    Cu     Cu                   
       Cu     Cu   CCul    Cl  Cl             
              Cl                              
               Cl                             
         Cl           Cl                      
                                              
                                              
                                              
                                              

Positions:
   0 Cu     2.853325   -0.040436   10.116930    ( 0.0000,  0.0000,  0.0000)
   1 Cu     4.202773    2.252620   10.030123    ( 0.0000,  0.0000,  0.0000)
   2 Cu     0.288233   -0.020736   10.022602    ( 0.0000,  0.0000,  0.0000)
   3 Cu     1.570928    2.261036   10.048178    ( 0.0000,  0.0000,  0.0000)
   4 Cu     2.900195    3.022427   12.143999    ( 0.0000,  0.0000,  0.0000)
   5 Cu     1.579526    0.747283   12.156509    ( 0.0000,  0.0000,  0.0000)
   6 Cu     5.493309    3.018903   12.140466    ( 0.0000,  0.0000,  0.0000)
   7 Cu     4.209032    0.758620   12.150439    ( 0.0000,  0.0000,  0.0000)
   8 Cu     5.515140    1.508111   14.281538    ( 0.0000,  0.0000,  0.0000)
   9 Cu     6.818584    3.780190   14.263431    ( 0.0000,  0.0000,  0.0000)
  10 Cu     2.895992    1.507821   14.275733    ( 0.0000,  0.0000,  0.0000)
  11 Cu     4.204355    3.778429   14.266594    ( 0.0000,  0.0000,  0.0000)
  12 Cu     2.894570   -0.004599   16.428492    ( 0.0000,  0.0000,  0.0000)
  13 Cu     4.200874    2.262525   16.414644    ( 0.0000,  0.0000,  0.0000)
  14 Cu     0.272596   -0.004505   16.422587    ( 0.0000,  0.0000,  0.0000)
  15 Cu     1.579239    2.264799   16.409665    ( 0.0000,  0.0000,  0.0000)
  16 Cu     2.890217    3.023693   18.528353    ( 0.0000,  0.0000,  0.0000)
  17 Cu     1.585609    0.761624   18.562204    ( 0.0000,  0.0000,  0.0000)
  18 Cu     5.515461    3.021540   18.550989    ( 0.0000,  0.0000,  0.0000)
  19 Cu     4.214393    0.754378   18.573040    ( 0.0000,  0.0000,  0.0000)
  20 Cu     5.496801    1.457254   20.623296    ( 0.0000,  0.0000,  0.0000)
  21 Cu     6.824035    3.804234   20.668637    ( 0.0000,  0.0000,  0.0000)
  22 Cu     2.886912    1.467924   20.618715    ( 0.0000,  0.0000,  0.0000)
  23 Cu     4.204675    3.826463   20.638800    ( 0.0000,  0.0000,  0.0000)
  24 Cu     5.517960    4.558004   10.053846    ( 0.0000,  0.0000,  0.0000)
  25 Cu     2.888584    4.518084   10.022937    ( 0.0000,  0.0000,  0.0000)
  26 Cu     4.209265    5.277492   12.131025    ( 0.0000,  0.0000,  0.0000)
  27 Cu     6.805614    5.281977   12.111356    ( 0.0000,  0.0000,  0.0000)
  28 Cu     8.125536    6.044032   14.259257    ( 0.0000,  0.0000,  0.0000)
  29 Cu     5.515345    6.044499   14.274993    ( 0.0000,  0.0000,  0.0000)
  30 Cu     5.508261    4.534498   16.408996    ( 0.0000,  0.0000,  0.0000)
  31 Cu     2.892175    4.537455   16.403138    ( 0.0000,  0.0000,  0.0000)
  32 Cu     4.201855    5.281612   18.557327    ( 0.0000,  0.0000,  0.0000)
  33 Cu     6.814619    5.277961   18.560011    ( 0.0000,  0.0000,  0.0000)
  34 Cu     8.120571    6.028515   20.663057    ( 0.0000,  0.0000,  0.0000)
  35 Cu     5.495116    6.058424   20.669895    ( 0.0000,  0.0000,  0.0000)
  36 Cu     5.539945   -0.020055   10.016160    ( 0.0000,  0.0000,  0.0000)
  37 Cu     6.828958    2.216347   10.058282    ( 0.0000,  0.0000,  0.0000)
  38 Cu     8.127582    3.024804   12.169589    ( 0.0000,  0.0000,  0.0000)
  39 Cu     6.813034    0.754453   12.138795    ( 0.0000,  0.0000,  0.0000)
  40 Cu     8.128277    1.505564   14.280870    ( 0.0000,  0.0000,  0.0000)
  41 Cu     9.439647    3.777847   14.275629    ( 0.0000,  0.0000,  0.0000)
  42 Cu     5.505134   -0.005328   16.409198    ( 0.0000,  0.0000,  0.0000)
  43 Cu     6.819583    2.266588   16.421061    ( 0.0000,  0.0000,  0.0000)
  44 Cu     8.129229    3.025033   18.560425    ( 0.0000,  0.0000,  0.0000)
  45 Cu     6.812596    0.756691   18.557806    ( 0.0000,  0.0000,  0.0000)
  46 Cu     8.128730    1.516001   20.670140    ( 0.0000,  0.0000,  0.0000)
  47 Cu     9.430640    3.785222   20.652096    ( 0.0000,  0.0000,  0.0000)
  48 Cu     8.127408    4.538679   10.013805    ( 0.0000,  0.0000,  0.0000)
  49 Cu     9.430808    5.279182   12.123931    ( 0.0000,  0.0000,  0.0000)
  50 Cu    10.749004    6.046623   14.260606    ( 0.0000,  0.0000,  0.0000)
  51 Cu     8.122412    4.534346   16.410716    ( 0.0000,  0.0000,  0.0000)
  52 Cu     9.437452    5.284195   18.549317    ( 0.0000,  0.0000,  0.0000)
  53 Cu    10.721425    6.068610   20.666045    ( 0.0000,  0.0000,  0.0000)
  54 Cl     6.179101    2.512440   22.534542    ( 0.0000,  0.0000,  0.0000)
  55 Cl     4.985620    3.529618    8.092921    ( 0.0000,  0.0000,  0.0000)
  56 Cl     9.996213    4.989562   23.114080    ( 0.0000,  0.0000,  0.0000)
  57 Cl     0.959650    0.825787    7.394357    ( 0.0000,  0.0000,  0.0000)
  58 Cl     8.653965    5.610196    7.532918    ( 0.0000,  0.0000,  0.0000)
  59 Cl     2.276870    0.353181   23.193200    ( 0.0000,  0.0000,  0.0000)
  60 Cl     4.886902    4.853442   23.127853    ( 0.0000,  0.0000,  0.0000)
  61 Cl     6.071404    1.105123    7.510236    ( 0.0000,  0.0000,  0.0000)
  62 Cl     3.744342    5.729628    7.502361    ( 0.0000,  0.0000,  0.0000)
  63 Cl     7.162527    0.316573   23.164396    ( 0.0000,  0.0000,  0.0000)
  64 Cl     3.589263    2.431081   22.524377    ( 0.0000,  0.0000,  0.0000)
  65 Cl     7.479151    3.484023    8.167860    ( 0.0000,  0.0000,  0.0000)
  66 Cl     3.383657    0.899782    8.104956    ( 0.0000,  0.0000,  0.0000)
  67 Cl     7.550575    5.170823   23.089497    ( 0.0000,  0.0000,  0.0000)
  68 Cl     8.752950    2.576962   23.136793    ( 0.0000,  0.0000,  0.0000)
  69 Cl     2.339691    3.450748    7.502168    ( 0.0000,  0.0000,  0.0000)

Unit cell:
           periodic     x           y           z      points  spacing
  1. axis:    yes    7.851007    0.000000    0.000000    45     0.1511
  2. axis:    yes    3.925503    6.799171    0.000000    45     0.1511
  3. axis:    yes    0.000000    0.000000   30.683867   175     0.1753

  Lengths:   7.851007   7.851006  30.683867
  Angles:   90.000000  90.000000  60.000001

Effective grid spacing dv^(1/3) = 0.1666

     iter     time        total  log10-change:
                         energy  eigst   dens
iter:   1 15:52:48 -4652.208116  -2.02
iter:   2 15:53:42 -4655.014281  -2.54  -2.19
iter:   3 15:54:36 -4651.980751  -3.05  -1.89
iter:   4 15:55:30 -4651.630920  -3.61  -2.31
iter:   5 15:56:24 -4651.563383  -4.00  -2.58
iter:   6 15:57:18 -4651.670191c -3.79  -2.71
iter:   7 15:58:12 -4651.645163c -4.02  -2.50
iter:   8 15:59:07 -4651.629489c -4.93  -2.55
iter:   9 16:00:00 -4651.527281c -4.50  -2.57
iter:  10 16:00:54 -4651.527594c -4.98  -3.14
iter:  11 16:01:47 -4651.537950c -5.02  -3.15
iter:  12 16:02:42 -4651.524040c -5.61  -2.97
iter:  13 16:03:35 -4651.521523c -5.30  -3.30
iter:  14 16:04:30 -4651.521210c -6.25  -3.63
iter:  15 16:05:25 -4651.521416c -6.08  -3.80
iter:  16 16:06:20 -4651.520858c -6.44  -3.84
iter:  17 16:07:14 -4651.521069c -7.04  -4.04c
iter:  18 16:08:09 -4651.520999c -7.10  -4.20c
iter:  19 16:09:04 -4651.521021c -7.40  -4.30c
iter:  20 16:09:57 -4651.521046c -7.78c -4.42c

Converged after 20 iterations.

Dipole moment: (-42.823012, -25.192998, 0.034593) |e|*Ang

Energy contributions relative to reference atoms: (reference = -2632037.589752)

Kinetic:       +619.467622
Potential:     -614.403632
External:        +0.000000
XC:            -4655.444973
Entropy (-ST):   -0.946533
Local:           -0.666797
--------------------------
Free energy:   -4651.994313
Extrapolated:  -4651.521046

Showing only first 2 kpts
 Kpt  Band  Eigenvalues  Occupancy
  0   351      1.28255    1.41855
  0   352      1.34189    1.14814
  0   353      1.39036    0.90714
  0   354      1.43396    0.69855

  1   351      1.29711    1.35673
  1   352      1.39415    0.88837
  1   353      1.46171    0.57822
  1   354      1.54110    0.31059


Fermi level: 1.37173

No gap

Forces in eV/Ang:
  0 Cu    0.12124    0.16900   -0.03507
  1 Cu    0.00087   -0.10356    0.01980
  2 Cu   -0.07472    0.01954    0.09809
  3 Cu    0.06647    0.01923   -0.03574
  4 Cu   -0.06894   -0.03926   -0.04222
  5 Cu   -0.07957    0.09074    0.00477
  6 Cu    0.07537   -0.08843    0.07280
  7 Cu    0.04977    0.01764    0.00060
  8 Cu    0.01094   -0.00380    0.05809
  9 Cu    0.00094    0.00275    0.06489
 10 Cu   -0.00615   -0.00146    0.02688
 11 Cu   -0.01020    0.01112    0.07744
 12 Cu   -0.01199    0.00858    0.00269
 13 Cu   -0.00648   -0.00444   -0.02318
 14 Cu    0.00226    0.00298    0.02485
 15 Cu    0.00206   -0.01090    0.00508
 16 Cu    0.03352    0.02059    0.00917
 17 Cu   -0.04089   -0.03020   -0.00626
 18 Cu   -0.03882    0.03864   -0.12194
 19 Cu   -0.02088   -0.05990   -0.19158
 20 Cu   -0.10192   -0.00166   -0.22058
 21 Cu   -0.01114    0.03726   -0.14548
 22 Cu   -0.14810   -0.06127   -0.32909
 23 Cu   -0.03863    0.04606    0.12697
 24 Cu   -0.09522    0.02759    0.28205
 25 Cu   -0.07595   -0.00663   -0.04532
 26 Cu   -0.07212    0.06500    0.03458
 27 Cu    0.07117   -0.05698    0.24087
 28 Cu    0.01194   -0.01839    0.03348
 29 Cu   -0.01437   -0.00000    0.02933
 30 Cu   -0.00310    0.00389   -0.01594
 31 Cu   -0.00750    0.01191    0.01174
 32 Cu   -0.00690    0.01767    0.02086
 33 Cu   -0.02111    0.00433    0.02013
 34 Cu   -0.04515   -0.09609   -0.01246
 35 Cu   -0.08490   -0.02099    0.10282
 36 Cu   -0.04329    0.01772   -0.16814
 37 Cu   -0.02364   -0.19410    0.03262
 38 Cu    0.00167   -0.04157   -0.08029
 39 Cu    0.01012    0.01746   -0.07370
 40 Cu   -0.00557   -0.00967    0.02842
 41 Cu    0.00030    0.02160    0.02456
 42 Cu    0.01633   -0.01401    0.01598
 43 Cu    0.00952   -0.00302   -0.01453
 44 Cu    0.00827   -0.00540   -0.02058
 45 Cu    0.07385   -0.02899   -0.08153
 46 Cu    0.08167   -0.01004    0.07127
 47 Cu    0.06497   -0.05526    0.07059
 48 Cu    0.30081    0.34379    0.62959
 49 Cu   -0.01745    0.01263   -0.08935
 50 Cu   -0.00693   -0.01336   -0.01830
 51 Cu    0.00879    0.00023    0.01538
 52 Cu    0.01194    0.00289    0.04878
 53 Cu    0.04101   -0.06109    0.06080
 54 Cl    0.08878    0.67569   -0.59525
 55 Cl   -0.79280   -0.26851    0.34615
 56 Cl    0.54255   -0.53570    0.26550
 57 Cl   -0.39478   -0.13580   -0.71265
 58 Cl    0.41317    0.47663   -0.74117
 59 Cl   -0.48397   -0.07123    0.65453
 60 Cl   -0.36653   -0.12172    0.01739
 61 Cl   -0.26518    0.19643   -0.14310
 62 Cl   -0.00601    0.20474   -0.73636
 63 Cl   -0.03653   -0.39869    0.36403
 64 Cl    0.06295    0.38590   -0.43142
 65 Cl    0.54454   -1.02859   -0.05146
 66 Cl    0.27580    0.33406    1.06453
 67 Cl    0.09096    0.28087   -0.00496
 68 Cl    0.31457    0.02629    0.37333
 69 Cl    0.12586   -0.02704   -0.24429

System changes: positions 

Initializing position-dependent things.

Density initialized from wave functions
                                              
                                              
                                              
                                              
                             Cl               
                     Cl           Cl          
                              Cl              
            Cl   Cl    CCl    Cu     Cu       
                   Cu     Cu    Cu            
                                              
               Cu   CCu    CCu   Cu           
               Cu     Cu     Cu               
                                              
           Cu   CCu    CCu   Cu               
                                              
            Cu    Cu    CCu   Cu     Cu       
       Cu     Cu   CCu    Cu    Cu            
                                              
               Cu   CCu    CCu   Cu           
               Cu     Cu     Cu               
                                              
           Cu   CCu    CCu   Cu               
            Cu    Cu                          
                         Cu                   
       Cu     Cu   CCul    Cl  Cl             
              CCl                             
                      Cl                      
         Cl                                   
                                              
                                              
                                              
                                              

Positions:
   0 Cu     2.845434   -0.033481   10.157865    ( 0.0000,  0.0000,  0.0000)
   1 Cu     4.214221    2.265646   10.053286    ( 0.0000,  0.0000,  0.0000)
   2 Cu     0.290766   -0.021816   10.010680    ( 0.0000,  0.0000,  0.0000)
   3 Cu     1.569284    2.265803   10.022506    ( 0.0000,  0.0000,  0.0000)
   4 Cu     2.892478    3.024085   12.150260    ( 0.0000,  0.0000,  0.0000)
   5 Cu     1.569085    0.752402   12.161330    ( 0.0000,  0.0000,  0.0000)
   6 Cu     5.495168    3.011993   12.160928    ( 0.0000,  0.0000,  0.0000)
   7 Cu     4.215489    0.753315   12.167873    ( 0.0000,  0.0000,  0.0000)
   8 Cu     5.518729    1.506269   14.290391    ( 0.0000,  0.0000,  0.0000)
   9 Cu     6.818948    3.781081   14.264214    ( 0.0000,  0.0000,  0.0000)
  10 Cu     2.895491    1.508015   14.274155    ( 0.0000,  0.0000,  0.0000)
  11 Cu     4.203103    3.779037   14.268696    ( 0.0000,  0.0000,  0.0000)
  12 Cu     2.891541   -0.002711   16.423920    ( 0.0000,  0.0000,  0.0000)
  13 Cu     4.199259    2.261595   16.414518    ( 0.0000,  0.0000,  0.0000)
  14 Cu     0.273468   -0.005646   16.429776    ( 0.0000,  0.0000,  0.0000)
  15 Cu     1.579125    2.262155   16.406691    ( 0.0000,  0.0000,  0.0000)
  16 Cu     2.889329    3.026923   18.525629    ( 0.0000,  0.0000,  0.0000)
  17 Cu     1.586784    0.760134   18.573781    ( 0.0000,  0.0000,  0.0000)
  18 Cu     5.511171    3.025858   18.533978    ( 0.0000,  0.0000,  0.0000)
  19 Cu     4.211508    0.741621   18.558123    ( 0.0000,  0.0000,  0.0000)
  20 Cu     5.491212    1.446163   20.545081    ( 0.0000,  0.0000,  0.0000)
  21 Cu     6.813410    3.796371   20.634901    ( 0.0000,  0.0000,  0.0000)
  22 Cu     2.877351    1.441045   20.569518    ( 0.0000,  0.0000,  0.0000)
  23 Cu     4.210876    3.848020   20.652644    ( 0.0000,  0.0000,  0.0000)
  24 Cu     5.501394    4.563739   10.138828    ( 0.0000,  0.0000,  0.0000)
  25 Cu     2.888844    4.510636   10.012707    ( 0.0000,  0.0000,  0.0000)
  26 Cu     4.201966    5.282656   12.138482    ( 0.0000,  0.0000,  0.0000)
  27 Cu     6.813982    5.282031   12.135112    ( 0.0000,  0.0000,  0.0000)
  28 Cu     8.128476    6.040495   14.269732    ( 0.0000,  0.0000,  0.0000)
  29 Cu     5.513428    6.043625   14.275619    ( 0.0000,  0.0000,  0.0000)
  30 Cu     5.506406    4.536054   16.407384    ( 0.0000,  0.0000,  0.0000)
  31 Cu     2.893162    4.540944   16.403474    ( 0.0000,  0.0000,  0.0000)
  32 Cu     4.199610    5.283200   18.568145    ( 0.0000,  0.0000,  0.0000)
  33 Cu     6.813241    5.284591   18.557622    ( 0.0000,  0.0000,  0.0000)
  34 Cu     8.111206    6.010316   20.668222    ( 0.0000,  0.0000,  0.0000)
  35 Cu     5.481382    6.052890   20.695283    ( 0.0000,  0.0000,  0.0000)
  36 Cu     5.552485   -0.012032    9.982446    ( 0.0000,  0.0000,  0.0000)
  37 Cu     6.836041    2.183180   10.047624    ( 0.0000,  0.0000,  0.0000)
  38 Cu     8.130031    3.024464   12.175220    ( 0.0000,  0.0000,  0.0000)
  39 Cu     6.812936    0.754454   12.131034    ( 0.0000,  0.0000,  0.0000)
  40 Cu     8.125834    1.502064   14.284339    ( 0.0000,  0.0000,  0.0000)
  41 Cu     9.439320    3.781311   14.280868    ( 0.0000,  0.0000,  0.0000)
  42 Cu     5.507335   -0.007123   16.414628    ( 0.0000,  0.0000,  0.0000)
  43 Cu     6.821751    2.267468   16.426581    ( 0.0000,  0.0000,  0.0000)
  44 Cu     8.137521    3.023211   18.559579    ( 0.0000,  0.0000,  0.0000)
  45 Cu     6.822316    0.751436   18.550977    ( 0.0000,  0.0000,  0.0000)
  46 Cu     8.129380    1.520473   20.686544    ( 0.0000,  0.0000,  0.0000)
  47 Cu     9.428600    3.779497   20.664914    ( 0.0000,  0.0000,  0.0000)
  48 Cu     8.151224    4.567988   10.056869    ( 0.0000,  0.0000,  0.0000)
  49 Cu     9.421933    5.279332   12.104147    ( 0.0000,  0.0000,  0.0000)
  50 Cu    10.747552    6.046628   14.254491    ( 0.0000,  0.0000,  0.0000)
  51 Cu     8.121959    4.533554   16.416363    ( 0.0000,  0.0000,  0.0000)
  52 Cu     9.440395    5.282564   18.562971    ( 0.0000,  0.0000,  0.0000)
  53 Cu    10.714222    6.079578   20.685566    ( 0.0000,  0.0000,  0.0000)
  54 Cl     6.213252    2.531585   22.414035    ( 0.0000,  0.0000,  0.0000)
  55 Cl     4.956561    3.550912    8.167004    ( 0.0000,  0.0000,  0.0000)
  56 Cl    10.004610    4.969713   23.167142    ( 0.0000,  0.0000,  0.0000)
  57 Cl     0.942883    0.697971    7.241446    ( 0.0000,  0.0000,  0.0000)
  58 Cl     8.627984    5.615195    7.409391    ( 0.0000,  0.0000,  0.0000)
  59 Cl     2.307579    0.356654   23.304398    ( 0.0000,  0.0000,  0.0000)
  60 Cl     4.867294    4.823343   23.161076    ( 0.0000,  0.0000,  0.0000)
  61 Cl     6.022524    1.085450    7.444139    ( 0.0000,  0.0000,  0.0000)
  62 Cl     3.829887    5.763674    7.371421    ( 0.0000,  0.0000,  0.0000)
  63 Cl     7.071448    0.315319   23.232587    ( 0.0000,  0.0000,  0.0000)
  64 Cl     3.612783    2.394344   22.411882    ( 0.0000,  0.0000,  0.0000)
  65 Cl     7.448932    3.549411    8.261143    ( 0.0000,  0.0000,  0.0000)
  66 Cl     3.392010    0.931061    8.254458    ( 0.0000,  0.0000,  0.0000)
  67 Cl     7.592643    5.293790   23.084883    ( 0.0000,  0.0000,  0.0000)
  68 Cl     8.763100    2.557086   23.211144    ( 0.0000,  0.0000,  0.0000)
  69 Cl     2.380137    3.431398    7.428765    ( 0.0000,  0.0000,  0.0000)

Unit cell:
           periodic     x           y           z      points  spacing
  1. axis:    yes    7.851007    0.000000    0.000000    45     0.1511
  2. axis:    yes    3.925503    6.799171    0.000000    45     0.1511
  3. axis:    yes    0.000000    0.000000   30.683867   175     0.1753

  Lengths:   7.851007   7.851006  30.683867
  Angles:   90.000000  90.000000  60.000001

Effective grid spacing dv^(1/3) = 0.1666

     iter     time        total  log10-change:
                         energy  eigst   dens
iter:   1 16:11:21 -4653.726818  -1.55
iter:   2 16:12:14 -4654.615962  -2.35  -2.09
iter:   3 16:13:09 -4653.326830  -2.97  -2.02
iter:   4 16:14:03 -4653.245025  -3.33  -2.20
iter:   5 16:14:56 -4652.764255  -3.55  -2.19
iter:   6 16:15:51 -4652.772812  -3.56  -2.45
iter:   7 16:16:46 -4652.656240c -3.91  -2.45
iter:   8 16:17:39 -4652.772625c -4.07  -2.67
iter:   9 16:18:39 -4652.626146c -4.36  -2.48
iter:  10 16:19:31 -4652.690154c -4.26  -2.90
iter:  11 16:20:18 -4652.632372c -4.45  -2.64
iter:  12 16:21:06 -4652.613384c -5.03  -2.92
iter:  13 16:21:55 -4652.611116c -5.54  -3.27
iter:  14 16:22:48 -4652.610156c -5.72  -3.45
iter:  15 16:23:42 -4652.610565c -5.53  -3.50
iter:  16 16:24:36 -4652.609911c -6.09  -3.72
iter:  17 16:25:30 -4652.609898c -6.19  -3.82
iter:  18 16:26:24 -4652.609975c -6.73  -3.98
iter:  19 16:27:16 -4652.610138c -6.90  -4.05c
iter:  20 16:28:11 -4652.610301c -7.19  -4.17c
iter:  21 16:29:05 -4652.609942c -7.14  -4.16c
iter:  22 16:29:58 -4652.610187c -7.13  -4.21c
iter:  23 16:31:15 -4652.610141c -7.76c -4.40c

Converged after 23 iterations.

Dipole moment: (-41.419605, -27.016660, 0.049354) |e|*Ang

Energy contributions relative to reference atoms: (reference = -2632037.589752)

Kinetic:       +618.209551
Potential:     -614.006715
External:        +0.000000
XC:            -4655.759323
Entropy (-ST):   -0.886988
Local:           -0.610161
--------------------------
Free energy:   -4653.053635
Extrapolated:  -4652.610141

Showing only first 2 kpts
 Kpt  Band  Eigenvalues  Occupancy
  0   351      1.22195    1.38926
  0   352      1.27983    1.12090
  0   353      1.33204    0.86135
  0   354      1.36405    0.70906

  1   351      1.10650    1.75657
  1   352      1.23308    1.34102
  1   353      1.36541    0.70285
  1   354      1.41519    0.49551


Fermi level: 1.30413

No gap

Forces in eV/Ang:
  0 Cu    0.02958   -0.03144    0.12317
  1 Cu    0.03581   -0.12112    0.13821
  2 Cu   -0.11631    0.01036    0.22227
  3 Cu    0.08713    0.00712   -0.03026
  4 Cu   -0.04690   -0.05315   -0.05308
  5 Cu   -0.06635    0.09707    0.03025
  6 Cu    0.07995   -0.11674    0.08007
  7 Cu    0.05394    0.04893   -0.02193
  8 Cu    0.00775   -0.01044    0.06402
  9 Cu    0.01049   -0.02098    0.12598
 10 Cu   -0.00936   -0.00254    0.04336
 11 Cu   -0.02125    0.01280    0.10287
 12 Cu   -0.01670   -0.00830    0.00607
 13 Cu   -0.01076    0.00177   -0.05391
 14 Cu    0.00439   -0.00071   -0.00599
 15 Cu    0.00593   -0.00061    0.02457
 16 Cu    0.06152    0.03856    0.00089
 17 Cu   -0.11537   -0.06992   -0.11850
 18 Cu   -0.06168    0.05987   -0.16402
 19 Cu   -0.02520   -0.07718   -0.33003
 20 Cu   -0.15890   -0.00950    0.01989
 21 Cu    0.10996    0.20379   -0.30640
 22 Cu   -0.21184   -0.04885   -0.31052
 23 Cu   -0.06046    0.02692    0.08625
 24 Cu   -0.00072   -0.00960   -0.02318
 25 Cu   -0.08849    0.04404   -0.08014
 26 Cu   -0.10995    0.06913    0.10922
 27 Cu    0.03175   -0.02132    0.34214
 28 Cu    0.02269   -0.00317    0.02988
 29 Cu   -0.02791    0.01525    0.05741
 30 Cu    0.00235    0.01378   -0.01592
 31 Cu   -0.02037    0.00845    0.03353
 32 Cu    0.00288    0.00828    0.00141
 33 Cu   -0.04021   -0.01786    0.02601
 34 Cu   -0.03108   -0.05454   -0.00797
 35 Cu   -0.08592   -0.00925    0.10309
 36 Cu   -0.07575   -0.01797   -0.19656
 37 Cu   -0.04766   -0.08484    0.06788
 38 Cu   -0.00856   -0.08655   -0.10534
 39 Cu   -0.01337    0.00674   -0.04685
 40 Cu   -0.00733    0.00108    0.02701
 41 Cu   -0.00070    0.01538    0.00275
 42 Cu    0.02646   -0.03019   -0.01518
 43 Cu    0.01293   -0.00747   -0.04709
 44 Cu   -0.00470    0.00116   -0.03390
 45 Cu    0.09108   -0.03133   -0.11469
 46 Cu    0.07058   -0.02992    0.10253
 47 Cu    0.10699   -0.06882    0.06381
 48 Cu    0.28677    0.32339    0.68004
 49 Cu    0.09482    0.06393    0.05032
 50 Cu   -0.01271   -0.01169   -0.00325
 51 Cu    0.02105    0.00956    0.01534
 52 Cu    0.00704    0.00372    0.05281
 53 Cu    0.07449   -0.09998    0.03651
 54 Cl    0.47485    0.67062   -0.62722
 55 Cl   -0.72697   -0.41996    0.61261
 56 Cl    0.74999   -0.87085    0.36748
 57 Cl    0.11030    0.28215   -0.92264
 58 Cl    0.46930    0.46474   -0.87523
 59 Cl   -0.68012   -0.20440    0.86615
 60 Cl   -0.32816   -0.07848   -0.02103
 61 Cl   -0.27013    0.25619   -0.20834
 62 Cl   -0.22212    0.08133   -0.96865
 63 Cl   -0.17163   -0.49567    0.36827
 64 Cl   -0.16194    0.41633   -0.50904
 65 Cl    0.97332   -1.00459   -0.40160
 66 Cl   -0.16998    0.14977    1.26495
 67 Cl   -0.09223    0.79326    0.03775
 68 Cl    0.43491   -0.07462    0.52288
 69 Cl   -0.22745    0.09260   -0.29128

System changes: positions 

Initializing position-dependent things.

Density initialized from wave functions
                                              
                                              
                                              
                                              
                             Cl               
                     Cl           Cl          
                              Cl              
             Cl  Cl     Cl    Cu     Cu       
                   Cu     Cu    Cu            
                                              
              Cu    CCu    CCu   Cu           
               Cu     Cu     Cu               
                                              
           Cu   CCu    CCu   Cu               
                                              
            Cu    Cu    CCu   Cu     Cu       
       Cu     Cu   CCu    Cu    Cu            
                                              
               Cu   CCu    CCu   Cu           
[...]
 50 Cu   -0.00895    0.00522   -0.00204
 51 Cu    0.00264    0.01111    0.00144
 52 Cu   -0.00174    0.00182   -0.00042
 53 Cu    0.00115    0.00172   -0.01143
 54 Cl    0.00131    0.00883   -0.00723
 55 Cl    0.00179   -0.00030    0.00748
 56 Cl   -0.00687   -0.02286    0.00786
 57 Cl    0.00527   -0.01267    0.00257
 58 Cl   -0.01695   -0.05202   -0.02567
 59 Cl    0.01432    0.00014    0.01314
 60 Cl    0.00834    0.00564   -0.00379
 61 Cl    0.02214   -0.00135    0.03459
 62 Cl    0.01242    0.00317   -0.01737
 63 Cl   -0.00439   -0.02376   -0.00445
 64 Cl   -0.02031   -0.00699    0.00239
 65 Cl    0.01059    0.00391    0.01465
 66 Cl    0.01673   -0.02033    0.02365
 67 Cl   -0.00217   -0.00523   -0.00921
 68 Cl    0.02830    0.01984   -0.01499
 69 Cl   -0.00556    0.05790    0.02156

System changes: positions 

Initializing position-dependent things.

Density initialized from wave functions
                                               
                                               
                                               
                                               
                             Cl                
                                               
                               Cl   Cl         
                                               
          Cl                                   
                        Cl                     
                                               
                  Cl    Cu   ClCu    Cu        
                    Cu    Cu     Cu            
                    Cl                         
               Cu    CCu   CCu    Cu           
                Cu     Cu    Cu                
                                               
           Cu    CCu   CCu    Cu               
            Cu     Cu                          
                        CCu    Cu    Cu        
        Cu    Cu    CCu   Cu     Cu            
                                               
               Cu    CCu   CCu    Cu           
                Cu     Cu    Cu                
                                               
            Cu   CCu   CuCu   Cu               
            Cu     Cu    Cu                    
                                               
        Cu    Cu   ClCu    Cl                  
           Cl                                  
                    Cl            Cl           
                        Cl                     
                                               
              Cl                               
           Cl                                  
                                               
                                               
                                               
                                               
                                               

Positions:
   0 Cu     2.918229    0.021680    9.978297    ( 0.0000,  0.0000,  0.0000)
   1 Cu     4.210178    2.280667    9.880430    ( 0.0000,  0.0000,  0.0000)
   2 Cu     0.279733    0.010848   10.060642    ( 0.0000,  0.0000,  0.0000)
   3 Cu     1.601033    2.299216   10.036516    ( 0.0000,  0.0000,  0.0000)
   4 Cu     2.915937    3.019732   12.130426    ( 0.0000,  0.0000,  0.0000)
   5 Cu     1.614252    0.774810   12.155752    ( 0.0000,  0.0000,  0.0000)
   6 Cu     5.516720    3.036409   12.079754    ( 0.0000,  0.0000,  0.0000)
   7 Cu     4.197136    0.793883   12.119967    ( 0.0000,  0.0000,  0.0000)
   8 Cu     5.522681    1.527823   14.270706    ( 0.0000,  0.0000,  0.0000)
   9 Cu     6.829087    3.796209   14.254852    ( 0.0000,  0.0000,  0.0000)
  10 Cu     2.908336    1.532004   14.294403    ( 0.0000,  0.0000,  0.0000)
  11 Cu     4.218351    3.793158   14.266336    ( 0.0000,  0.0000,  0.0000)
  12 Cu     2.897345    0.013689   16.405988    ( 0.0000,  0.0000,  0.0000)
  13 Cu     4.207119    2.289910   16.433541    ( 0.0000,  0.0000,  0.0000)
  14 Cu     0.281218    0.015915   16.415638    ( 0.0000,  0.0000,  0.0000)
  15 Cu     1.587967    2.290786   16.438367    ( 0.0000,  0.0000,  0.0000)
  16 Cu     2.889622    3.070063   18.598880    ( 0.0000,  0.0000,  0.0000)
  17 Cu     1.592184    0.781909   18.535575    ( 0.0000,  0.0000,  0.0000)
  18 Cu     5.521737    3.054850   18.589411    ( 0.0000,  0.0000,  0.0000)
  19 Cu     4.198118    0.769127   18.545192    ( 0.0000,  0.0000,  0.0000)
  20 Cu     5.520211    1.524122   20.669840    ( 0.0000,  0.0000,  0.0000)
  21 Cu     6.824542    3.801797   20.796822    ( 0.0000,  0.0000,  0.0000)
  22 Cu     2.854716    1.523685   20.643480    ( 0.0000,  0.0000,  0.0000)
  23 Cu     4.200352    3.827973   20.757237    ( 0.0000,  0.0000,  0.0000)
  24 Cu     5.519790    4.567721    9.895672    ( 0.0000,  0.0000,  0.0000)
  25 Cu     2.870954    4.572518   10.104638    ( 0.0000,  0.0000,  0.0000)
  26 Cu     4.237664    5.307161   12.137657    ( 0.0000,  0.0000,  0.0000)
  27 Cu     6.812047    5.314834   12.104799    ( 0.0000,  0.0000,  0.0000)
  28 Cu     8.138915    6.064682   14.262886    ( 0.0000,  0.0000,  0.0000)
  29 Cu     5.524358    6.061916   14.278071    ( 0.0000,  0.0000,  0.0000)
  30 Cu     5.517640    4.548948   16.415766    ( 0.0000,  0.0000,  0.0000)
  31 Cu     2.899359    4.550710   16.410660    ( 0.0000,  0.0000,  0.0000)
  32 Cu     4.196113    5.294747   18.545881    ( 0.0000,  0.0000,  0.0000)
  33 Cu     6.836537    5.298848   18.560235    ( 0.0000,  0.0000,  0.0000)
  34 Cu     8.115422    6.074105   20.668853    ( 0.0000,  0.0000,  0.0000)
  35 Cu     5.511067    6.108376   20.585048    ( 0.0000,  0.0000,  0.0000)
  36 Cu     5.544698    0.013628   10.095973    ( 0.0000,  0.0000,  0.0000)
  37 Cu     6.843506    2.272685    9.970079    ( 0.0000,  0.0000,  0.0000)
  38 Cu     8.145817    3.030669   12.144753    ( 0.0000,  0.0000,  0.0000)
  39 Cu     6.845106    0.793731   12.138053    ( 0.0000,  0.0000,  0.0000)
  40 Cu     8.145638    1.527334   14.285060    ( 0.0000,  0.0000,  0.0000)
  41 Cu     9.452822    3.792245   14.282369    ( 0.0000,  0.0000,  0.0000)
  42 Cu     5.516394    0.013352   16.414406    ( 0.0000,  0.0000,  0.0000)
  43 Cu     6.827250    2.286700   16.412242    ( 0.0000,  0.0000,  0.0000)
  44 Cu     8.120026    3.074364   18.582861    ( 0.0000,  0.0000,  0.0000)
  45 Cu     6.807848    0.782866   18.540871    ( 0.0000,  0.0000,  0.0000)
  46 Cu     8.108423    1.506920   20.595049    ( 0.0000,  0.0000,  0.0000)
  47 Cu     9.429236    3.802006   20.787383    ( 0.0000,  0.0000,  0.0000)
  48 Cu     8.171116    4.583139   10.071691    ( 0.0000,  0.0000,  0.0000)
  49 Cu     9.447323    5.304932   12.159496    ( 0.0000,  0.0000,  0.0000)
  50 Cu    10.761531    6.063911   14.271300    ( 0.0000,  0.0000,  0.0000)
  51 Cu     8.131113    4.549814   16.402570    ( 0.0000,  0.0000,  0.0000)
  52 Cu     9.426439    5.289145   18.553088    ( 0.0000,  0.0000,  0.0000)
  53 Cu    10.768423    6.067766   20.610100    ( 0.0000,  0.0000,  0.0000)
  54 Cl     8.157202    2.499071   22.627424    ( 0.0000,  0.0000,  0.0000)
  55 Cl     3.765956    4.052220    8.097610    ( 0.0000,  0.0000,  0.0000)
  56 Cl    10.533066    4.216210   25.760601    ( 0.0000,  0.0000,  0.0000)
  57 Cl     1.476097    0.225374    4.588737    ( 0.0000,  0.0000,  0.0000)
  58 Cl     9.419519    5.425389    5.338396    ( 0.0000,  0.0000,  0.0000)
  59 Cl     1.530181   -0.632550   26.370542    ( 0.0000,  0.0000,  0.0000)
  60 Cl     5.703116    5.132695   22.609989    ( 0.0000,  0.0000,  0.0000)
  61 Cl     5.034307    0.756130    8.024673    ( 0.0000,  0.0000,  0.0000)
  62 Cl     5.519375    5.016207    4.708931    ( 0.0000,  0.0000,  0.0000)
  63 Cl     5.645733   -1.092460   22.550040    ( 0.0000,  0.0000,  0.0000)
  64 Cl     4.090447    2.109166   22.529609    ( 0.0000,  0.0000,  0.0000)
  65 Cl     7.232040    3.804334    8.128217    ( 0.0000,  0.0000,  0.0000)
  66 Cl     1.446699    0.781756    8.170781    ( 0.0000,  0.0000,  0.0000)
  67 Cl     7.127312    7.019933   25.637493    ( 0.0000,  0.0000,  0.0000)
  68 Cl     8.787832    3.420515   26.374653    ( 0.0000,  0.0000,  0.0000)
  69 Cl     1.723442    3.785892    4.172221    ( 0.0000,  0.0000,  0.0000)

Unit cell:
           periodic     x           y           z      points  spacing
  1. axis:    yes    7.851007    0.000000    0.000000    45     0.1511
  2. axis:    yes    3.925503    6.799171    0.000000    45     0.1511
  3. axis:    yes    0.000000    0.000000   30.683867   175     0.1753

  Lengths:   7.851007   7.851006  30.683867
  Angles:   90.000000  90.000000  60.000001

Effective grid spacing dv^(1/3) = 0.1666

     iter     time        total  log10-change:
                         energy  eigst   dens
iter:   1 00:47:15 -4669.303438  -3.72
iter:   2 00:48:09 -4669.331932  -3.84  -2.93
iter:   3 00:49:04 -4669.257163c -4.52  -2.87
iter:   4 00:49:59 -4669.256360c -5.66  -3.52
iter:   5 00:50:53 -4669.256183c -5.27  -3.66
iter:   6 00:51:48 -4669.255830c -5.72  -3.86
iter:   7 00:52:44 -4669.255850c -6.45  -4.06c
iter:   8 00:53:39 -4669.255793c -6.11  -4.12c
iter:   9 00:54:34 -4669.255758c -7.39  -4.41c
iter:  10 00:55:24 -4669.255728c -6.64  -4.53c
iter:  11 00:56:19 -4669.255737c -7.14  -4.70c
iter:  12 00:57:05 -4669.255721c -7.22  -4.83c
iter:  13 00:57:52 -4669.255720c -8.03c -4.99c

Converged after 13 iterations.

Dipole moment: (-21.641096, -23.055538, 0.085112) |e|*Ang

Energy contributions relative to reference atoms: (reference = -2632037.589752)

Kinetic:       +506.826270
Potential:     -536.793595
External:        +0.000000
XC:            -4638.408390
Entropy (-ST):   -0.510103
Local:           -0.624953
--------------------------
Free energy:   -4669.510771
Extrapolated:  -4669.255720

Showing only first 2 kpts
 Kpt  Band  Eigenvalues  Occupancy
  0   351      1.27442    1.17664
  0   352      1.36680    0.72400
  0   353      1.40415    0.56170
  0   354      1.48203    0.30399

  1   351      0.75973    1.99189
  1   352      0.78474    1.98960
  1   353      1.17434    1.59084
  1   354      1.19917    1.50410


Fermi level: 1.31013

No gap

Forces in eV/Ang:
  0 Cu   -0.00429    0.00018    0.00488
  1 Cu    0.00319   -0.00091   -0.00056
  2 Cu   -0.00422   -0.00686    0.00581
  3 Cu   -0.00359   -0.00081    0.00669
  4 Cu    0.00207    0.00900   -0.00890
  5 Cu   -0.00551    0.00142    0.00187
  6 Cu    0.00095    0.00864   -0.00267
  7 Cu    0.00312    0.00221   -0.00309
  8 Cu   -0.00382    0.00496   -0.00098
  9 Cu   -0.00022    0.00570   -0.00215
 10 Cu    0.00315    0.00521    0.00117
 11 Cu   -0.00085    0.00151    0.00270
 12 Cu    0.00579   -0.00405    0.00458
 13 Cu    0.00085   -0.00028    0.00685
 14 Cu   -0.00724    0.00272    0.00640
 15 Cu   -0.00134    0.00609   -0.00117
 16 Cu    0.00016   -0.00271   -0.00291
 17 Cu    0.00090   -0.00221   -0.00667
 18 Cu    0.00133   -0.00141    0.00432
 19 Cu    0.00358   -0.00224   -0.00088
 20 Cu    0.00424   -0.00599    0.01695
 21 Cu    0.00038   -0.00591    0.00261
 22 Cu    0.00263   -0.00736   -0.00199
 23 Cu    0.00172    0.00303    0.00399
 24 Cu    0.00080   -0.00420    0.00413
 25 Cu    0.00619   -0.00161   -0.00005
 26 Cu   -0.00405    0.00177   -0.01201
 27 Cu    0.00348    0.00833   -0.00492
 28 Cu   -0.00134    0.00406   -0.00244
 29 Cu    0.00125   -0.00306    0.00001
 30 Cu   -0.00039    0.00182    0.00763
 31 Cu   -0.00661    0.00284    0.00173
 32 Cu   -0.00008    0.00099    0.00095
 33 Cu    0.00011   -0.00181   -0.00114
 34 Cu   -0.00526   -0.00352   -0.00326
 35 Cu   -0.00050   -0.00042    0.00971
 36 Cu   -0.00510    0.00115   -0.01181
 37 Cu   -0.00106   -0.00520    0.00407
 38 Cu   -0.00071    0.00629   -0.00685
 39 Cu   -0.00488    0.00021   -0.00705
 40 Cu   -0.00178    0.00757    0.00206
 41 Cu    0.00197    0.00564   -0.00088
 42 Cu   -0.00923   -0.00359   -0.00086
 43 Cu   -0.00448    0.00648    0.00333
 44 Cu    0.00001    0.00004   -0.00366
 45 Cu   -0.00998    0.00315    0.00383
 46 Cu   -0.00706   -0.00267    0.00552
 47 Cu    0.00090    0.00157   -0.00160
 48 Cu   -0.00482   -0.00004    0.00381
 49 Cu    0.00153    0.00393   -0.00808
 50 Cu   -0.00666    0.00396   -0.00357
 51 Cu   -0.00201    0.00536   -0.00127
 52 Cu   -0.00082    0.00307   -0.00225
 53 Cu   -0.00374   -0.00151   -0.00523
 54 Cl   -0.00449    0.00615   -0.00288
 55 Cl    0.00619    0.00059    0.00042
 56 Cl    0.01352   -0.01054    0.00739
 57 Cl    0.00338    0.00111    0.00241
 58 Cl   -0.01432   -0.01939   -0.00067
 59 Cl    0.01392   -0.00241    0.01002
 60 Cl    0.00952    0.00349    0.00172
 61 Cl    0.02501   -0.00046    0.00506
 62 Cl    0.00786    0.00738   -0.01432
 63 Cl    0.00645   -0.01875   -0.00611
 64 Cl   -0.01230   -0.00963    0.00106
 65 Cl    0.00234   -0.00052   -0.00032
 66 Cl    0.01140   -0.01786    0.01907
 67 Cl    0.00082   -0.00819   -0.01480
 68 Cl   -0.01320    0.00404   -0.00417
 69 Cl   -0.00382    0.01940    0.00089

Timing:                                      incl.     excl.
-------------------------------------------------------------------
Density initialized from wave functions:   611.431   611.426   0.5% |
 Symmetrize density:                         0.005     0.005   0.0% |
Forces:                                   2511.079  2511.079   2.0% ||
Hamiltonian:                               942.835     2.076   0.0% |
 Atomic:                                    43.632    14.392   0.0% |
  XC Correction:                            29.239    29.239   0.0% |
 Calculate atomic Hamiltonians:            235.842   235.842   0.2% |
 Communicate:                                6.758     6.758   0.0% |
 Initialize Hamiltonian:                     0.002     0.002   0.0% |
 Poisson:                                    0.608     0.608   0.0% |
 XC 3D grid:                               653.917    96.168   0.1% |
  VdW-DF integral:                         557.749    24.394   0.0% |
   Convolution:                             39.840    39.840   0.0% |
   FFT:                                     19.824    19.824   0.0% |
   gather:                                 195.351   195.351   0.2% |
   hmm1:                                    11.795    11.795   0.0% |
   hmm2:                                    28.590    28.590   0.0% |
   iFFT:                                    20.694    20.694   0.0% |
   potential:                              211.865     2.730   0.0% |
    collect:                                32.289    32.289   0.0% |
    p1:                                     97.722    97.722   0.1% |
    p2:                                     40.503    40.503   0.0% |
    sum:                                    38.621    38.621   0.0% |
   splines:                                  5.396     5.396   0.0% |
LCAO initialization:                       265.204     0.509   0.0% |
 LCAO eigensolver:                          14.249     0.002   0.0% |
  Blacs Orbital Layouts:                     0.782     0.001   0.0% |
   General diagonalize:                      0.770     0.770   0.0% |
   Redistribute coefs:                       0.007     0.007   0.0% |
   Send coefs to domains:                    0.004     0.004   0.0% |
  Calculate projections:                     0.017     0.017   0.0% |
  Distribute overlap matrix:                12.887     0.001   0.0% |
   Scalapack redistribute:                   0.016     0.016   0.0% |
   blocked summation:                       12.870    12.870   0.0% |
  Potential matrix:                          0.346     0.346   0.0% |
  SparseAtomicCorrection:                    0.034     0.034   0.0% |
  Sum over cells:                            0.181     0.181   0.0% |
 LCAO to grid:                             247.801   247.801   0.2% |
 Set positions (LCAO WFS):                   2.645     0.062   0.0% |
  Basic WFS set positions:                   0.003     0.003   0.0% |
  Basis functions set positions:             0.000     0.000   0.0% |
  P tci:                                     0.078     0.078   0.0% |
  ST tci:                                    0.452     0.452   0.0% |
  Scalapack redistribute:                    0.034     0.034   0.0% |
  blocked summation:                         1.855     1.855   0.0% |
  mktci:                                     0.161     0.161   0.0% |
PWDescriptor:                                0.982     0.982   0.0% |
Redistribute:                                0.605     0.605   0.0% |
SCF-cycle:                               119613.721  4936.673   3.9% |-|
 Davidson:                               87170.200 21028.007  16.8% |------|
  Apply H:                                9318.517  9163.035   7.3% |--|
   HMM T:                                  155.482   155.482   0.1% |
  Subspace diag:                         15138.668     0.570   0.0% |
   calc_h_matrix:                        11420.442  2258.861   1.8% ||
    Apply H:                              9161.580  8990.416   7.2% |--|
     HMM T:                                171.165   171.165   0.1% |
   diagonalize:                            524.540   524.540   0.4% |
   rotate_psi:                            3193.116  3193.116   2.5% ||
  calc. matrices:                        32541.283 14214.853  11.3% |----|
   Apply H:                              18326.430 18018.820  14.4% |-----|
    HMM T:                                 307.611   307.611   0.2% |
  diagonalize:                            3217.041  3217.041   2.6% ||
  rotate_psi:                             5926.684  5926.684   4.7% |-|
 Density:                                10526.306     0.117   0.0% |
  Atomic density matrices:                  30.835    30.835   0.0% |
  Mix:                                    5116.228  5116.228   4.1% |-|
  Multipole moments:                         2.125     2.125   0.0% |
  Pseudo density:                         5377.002  5376.907   4.3% |-|
   Symmetrize density:                       0.094     0.094   0.0% |
 Hamiltonian:                            16413.042    40.608   0.0% |
  Atomic:                                  729.184   205.525   0.2% |
   XC Correction:                          523.659   523.659   0.4% |
  Calculate atomic Hamiltonians:          4231.266  4231.266   3.4% ||
  Communicate:                             134.610   134.610   0.1% |
  Poisson:                                  10.870    10.870   0.0% |
  XC 3D grid:                            11266.504  1553.301   1.2% |
   VdW-DF integral:                       9713.203   419.162   0.3% |
    Convolution:                           674.651   674.651   0.5% |
    FFT:                                   348.939   348.939   0.3% |
    gather:                               3457.337  3457.337   2.8% ||
    hmm1:                                  258.457   258.457   0.2% |
    hmm2:                                  496.750   496.750   0.4% |
    iFFT:                                  358.508   358.508   0.3% |
    potential:                            3699.373    48.433   0.0% |
     collect:                              560.969   560.969   0.4% |
     p1:                                  1704.030  1704.030   1.4% ||
     p2:                                   709.265   709.265   0.6% |
     sum:                                  676.676   676.676   0.5% |
    splines:                                 0.025     0.025   0.0% |
 Orthonormalize:                           567.501     0.053   0.0% |
  calc_s_matrix:                            60.676    60.676   0.0% |
  inverse-cholesky:                        143.167   143.167   0.1% |
  projections:                             272.087   272.087   0.2% |
  rotate_psi_s:                             91.518    91.518   0.1% |
Set symmetry:                                0.002     0.002   0.0% |
Other:                                    1518.191  1518.191   1.2% |
-------------------------------------------------------------------
Total:                                             125464.049 100.0%

Memory usage: 1.29 GiB
Date: Wed Oct 19 00:58:13 2022
