
  ___ ___ ___ _ _ _  
 |   |   |_  | | | | 
 | | | | | . | | | | 
 |__ |  _|___|_____|  22.1.0
 |___|_|             

User:   thorkong@node027.cluster
Date:   Sat Nov 19 07:06:30 2022
Arch:   x86_64
Pid:    2887
Python: 3.10.5
gpaw:   /groups/kemi/thorkong/miniconda3/envs/gpaw22/lib/python3.10/site-packages/gpaw
_gpaw:  /groups/kemi/thorkong/miniconda3/envs/gpaw22/lib/python3.10/site-packages/
        _gpaw.cpython-310-x86_64-linux-gnu.so
ase:    /groups/kemi/thorkong/miniconda3/envs/gpaw22/lib/python3.10/site-packages/ase (version 3.22.1)
numpy:  /groups/kemi/thorkong/miniconda3/envs/gpaw22/lib/python3.10/site-packages/numpy (version 1.23.0)
scipy:  /groups/kemi/thorkong/miniconda3/envs/gpaw22/lib/python3.10/site-packages/scipy (version 1.8.1)
libxc:  5.2.3
units:  Angstrom and eV
cores: 32
OpenMP: True
OMP_NUM_THREADS: 1

Input parameters:
  basis: dzp
  kpts: [4 4 1]
  mode: {ecut: 600.0,
         name: pw}
  xc: BEEF-vdW

System changes: positions, numbers, cell, pbc, initial_charges, initial_magmoms 

Initialize ...

Cu-setup:
  name: Copper
  id: f1c4d45d90492f1bbfdcb091e8418fdf
  Z: 29.0
  valence: 11
  core: 18
  charge: 0.0
  file: /groups/kemi/thorkong/miniconda3/envs/gpaw22/share/gpaw/Cu.PBE.gz
  compensation charges: gauss, rc=0.33, lmax=2
  cutoffs: 2.06(filt), 2.43(core),
  valence states:
                energy  radius
    4s(1.00)    -4.609   1.164
    4p(0.00)    -0.698   1.164
    3d(10.00)    -5.039   1.058
    *s          22.603   1.164
    *p          26.513   1.164
    *d          22.172   1.058

  LCAO basis set for Cu:
    Name: dzp
    File: /groups/kemi/thorkong/miniconda3/envs/gpaw22/share/gpaw/Cu.dzp.basis.gz
    Number of radial functions: 5
    Number of spherical harmonics: 15
      l=0, rc=8.9688 Bohr: 4s-sz confined orbital
      l=2, rc=5.1719 Bohr: 3d-sz confined orbital
      l=0, rc=5.3281 Bohr: 4s-dz split-valence wave
      l=2, rc=3.1406 Bohr: 3d-dz split-valence wave
      l=1, rc=8.9688 Bohr: p-type Gaussian polarization

Cl-setup:
  name: Chlorine
  id: 726897f06f34e53cf8e33b5885a02604
  Z: 17.0
  valence: 7
  core: 10
  charge: 0.0
  file: /groups/kemi/thorkong/miniconda3/envs/gpaw22/share/gpaw/Cl.PBE.gz
  compensation charges: gauss, rc=0.25, lmax=2
  cutoffs: 1.40(filt), 1.49(core),
  valence states:
                energy  radius
    3s(2.00)   -20.689   0.794
    3p(5.00)    -8.594   0.794
    *s           6.523   0.794
    *p          18.617   0.794
    *d           0.000   0.794

  LCAO basis set for Cl:
    Name: dzp
    File: /groups/kemi/thorkong/miniconda3/envs/gpaw22/share/gpaw/Cl.dzp.basis.gz
    Number of radial functions: 5
    Number of spherical harmonics: 13
      l=0, rc=5.1719 Bohr: 3s-sz confined orbital
      l=1, rc=6.2656 Bohr: 3p-sz confined orbital
      l=0, rc=2.8281 Bohr: 3s-dz split-valence wave
      l=1, rc=3.5156 Bohr: 3p-dz split-valence wave
      l=2, rc=6.2656 Bohr: d-type Gaussian polarization

Reference energy: -2581817.792169

Spin-paired calculation

Convergence criteria:
 Maximum [total energy] change in last 3 cyles: 0.0005 eV / electron
 Maximum integral of absolute [dens]ity change: 0.0001 electrons / valence electron
 Maximum integral of absolute [eigenst]ate change: 4e-08 eV^2 / valence electron
 Maximum number of scf [iter]ations: 333
 (Square brackets indicate name in SCF output, whereas a 'c' in
 the SCF output indicates the quantity has converged.)

Symmetries present (total): 1

  ( 1  0  0)
  ( 0  1  0)
  ( 0  0  1)

16 k-points: 4 x 4 x 1 Monkhorst-Pack grid
8 k-points in the irreducible part of the Brillouin zone
       k-points in crystal coordinates                weights
   0:     0.12500000   -0.37500000    0.00000000          2/16
   1:     0.12500000   -0.12500000    0.00000000          2/16
   2:     0.12500000    0.12500000    0.00000000          2/16
   3:     0.12500000    0.37500000    0.00000000          2/16
   4:     0.37500000   -0.37500000    0.00000000          2/16
   5:     0.37500000   -0.12500000    0.00000000          2/16
   6:     0.37500000    0.12500000    0.00000000          2/16
   7:     0.37500000    0.37500000    0.00000000          2/16

Wave functions: Plane wave expansion
  Cutoff energy: 600.000 eV
  Number of coefficients (min, max): 54614, 54705
  Pulay-stress correction: 0.000000 eV/Ang^3 (de/decut=0.000000)
  Using FFTW library
  ScaLapack parameters: grid=2x2, blocksize=64
  Wavefunction extrapolation:
    Improved wavefunction reuse through dual PAW basis 

Occupation numbers: Fermi-Dirac: width=0.1000 eV
 

Eigensolver
   Davidson(niter=2) 

Densities:
  Coarse grid: 45*45*175 grid
  Fine grid: 90*90*350 grid
  Total Charge: 0.000000 

Density mixing:
  Method: separate
  Backend: pulay
  Linear mixing parameter: 0.05
  Mixing with 5 old densities
  Damping of long wave oscillations: 50 

Hamiltonian:
  XC and Coulomb potentials evaluated on a 90*90*350 grid
  Using the BEEF-vdW Exchange-Correlation functional
  External potential:
    NoExternalPotential
 

XC parameters: BEEF-vdW with 2 nearest neighbor stencil

Memory estimate:
  Process memory now: 241.69 MiB
  Calculator: 788.46 MiB
    Density: 42.61 MiB
      Arrays: 17.67 MiB
      Localized functions: 18.14 MiB
      Mixer: 6.80 MiB
    Hamiltonian: 12.00 MiB
      Arrays: 11.56 MiB
      XC: 0.00 MiB
      Poisson: 0.00 MiB
      vbar: 0.44 MiB
    Wavefunctions: 733.85 MiB
      Arrays psit_nG: 343.07 MiB
      Eigensolver: 373.04 MiB
      Projections: 1.77 MiB
      Projectors: 2.09 MiB
      PW-descriptor: 13.88 MiB

Total number of cores used: 32
Parallelization over k-points: 8
Domain decomposition: 1 x 1 x 4
                      2 x 2 x 8 (xc only)

Number of atoms: 66
Number of atomic orbitals: 966
Number of bands in calculation: 411
Number of valence electrons: 678
Bands to converge: occupied

... initialized

Initializing position-dependent things.

Density initialized from atomic densities
Creating initial wave functions:
  411 bands from LCAO basis set

                                              
                                              
                                              
                                              
                                              
                 Cl    Cl    Cl               
                      ClCu    Cu     Cu       
               Cl  Cu     CCl   Cu            
                                              
               Cu   CCu    CCu   Cu           
                Cu           Cu               
                      Cu                      
           Cu   CCu    CCu   Cu               
                                              
            Cu    Cu    CCu   Cu     Cu       
       Cu     Cu   CCu    Cu    Cu            
                                              
               Cu   CCu    CCu   Cu           
                      Cu    Cu                
               Cu                             
           Cu   CCu    CCu   Cu               
                         Cu                   
            Cu   CCu         Cl               
       Cu     Cu    Cul                       
               Cl    Cl    Cl                 
                                              
                                              
                                              
                                              
                                              

Positions:
   0 Cu     2.877915   -0.082491    9.917658    ( 0.0000,  0.0000,  0.0000)
   1 Cu     4.209309    2.242023    9.937251    ( 0.0000,  0.0000,  0.0000)
   2 Cu     0.267750    0.007166    9.935837    ( 0.0000,  0.0000,  0.0000)
   3 Cu     1.556573    2.267274    9.911287    ( 0.0000,  0.0000,  0.0000)
   4 Cu     2.864650    3.001957   12.084938    ( 0.0000,  0.0000,  0.0000)
   5 Cu     1.577222    0.721880   12.057086    ( 0.0000,  0.0000,  0.0000)
   6 Cu     5.478953    2.998595   12.153805    ( 0.0000,  0.0000,  0.0000)
   7 Cu     4.209092    0.733335   12.059641    ( 0.0000,  0.0000,  0.0000)
   8 Cu     5.504262    1.502633   14.274886    ( 0.0000,  0.0000,  0.0000)
   9 Cu     6.823445    3.769370   14.277542    ( 0.0000,  0.0000,  0.0000)
  10 Cu     2.896029    1.500490   14.217927    ( 0.0000,  0.0000,  0.0000)
  11 Cu     4.191344    3.774861   14.268141    ( 0.0000,  0.0000,  0.0000)
  12 Cu     2.907720   -0.003418   16.400669    ( 0.0000,  0.0000,  0.0000)
  13 Cu     4.203760    2.271323   16.402565    ( 0.0000,  0.0000,  0.0000)
  14 Cu     0.291787   -0.003970   16.402872    ( 0.0000,  0.0000,  0.0000)
  15 Cu     1.597307    2.273013   16.382996    ( 0.0000,  0.0000,  0.0000)
  16 Cu     2.907865    3.052163   18.544065    ( 0.0000,  0.0000,  0.0000)
  17 Cu     1.613415    0.761320   18.508850    ( 0.0000,  0.0000,  0.0000)
  18 Cu     5.546521    3.038918   18.526760    ( 0.0000,  0.0000,  0.0000)
  19 Cu     4.233085    0.741609   18.510148    ( 0.0000,  0.0000,  0.0000)
  20 Cu     5.547968    1.431370   20.545106    ( 0.0000,  0.0000,  0.0000)
  21 Cu     6.818674    3.768700   20.695372    ( 0.0000,  0.0000,  0.0000)
  22 Cu     2.918054    1.561581   20.543758    ( 0.0000,  0.0000,  0.0000)
  23 Cu     4.309358    3.761720   20.648520    ( 0.0000,  0.0000,  0.0000)
  24 Cu     5.507350    4.563905   10.093875    ( 0.0000,  0.0000,  0.0000)
  25 Cu     2.890416    4.477115   10.017521    ( 0.0000,  0.0000,  0.0000)
  26 Cu     4.192959    5.295737   12.141008    ( 0.0000,  0.0000,  0.0000)
  27 Cu     6.802742    5.283236   12.151538    ( 0.0000,  0.0000,  0.0000)
  28 Cu     8.126294    6.039901   14.262639    ( 0.0000,  0.0000,  0.0000)
  29 Cu     5.512277    6.039709   14.278119    ( 0.0000,  0.0000,  0.0000)
  30 Cu     5.521783    4.540086   16.412474    ( 0.0000,  0.0000,  0.0000)
  31 Cu     2.901463    4.548343   16.445346    ( 0.0000,  0.0000,  0.0000)
  32 Cu     4.254194    5.310890   18.602125    ( 0.0000,  0.0000,  0.0000)
  33 Cu     6.821280    5.310148   18.626550    ( 0.0000,  0.0000,  0.0000)
  34 Cu     8.156310    6.079931   20.782955    ( 0.0000,  0.0000,  0.0000)
  35 Cu     5.553695    6.083780   20.836871    ( 0.0000,  0.0000,  0.0000)
  36 Cu     5.471575   -0.038571    9.929976    ( 0.0000,  0.0000,  0.0000)
  37 Cu     6.730301    2.251057   10.099500    ( 0.0000,  0.0000,  0.0000)
  38 Cu     8.134799    2.987516   12.149908    ( 0.0000,  0.0000,  0.0000)
  39 Cu     6.788445    0.723635   12.124880    ( 0.0000,  0.0000,  0.0000)
  40 Cu     8.132451    1.491719   14.249076    ( 0.0000,  0.0000,  0.0000)
  41 Cu     9.436763    3.771182   14.292782    ( 0.0000,  0.0000,  0.0000)
  42 Cu     5.521035   -0.005057   16.391113    ( 0.0000,  0.0000,  0.0000)
  43 Cu     6.836056    2.267901   16.406925    ( 0.0000,  0.0000,  0.0000)
  44 Cu     8.171203    3.040002   18.563714    ( 0.0000,  0.0000,  0.0000)
  45 Cu     6.844314    0.730732   18.509541    ( 0.0000,  0.0000,  0.0000)
  46 Cu     8.159572    1.543977   20.578872    ( 0.0000,  0.0000,  0.0000)
  47 Cu     9.463101    3.745321   20.766708    ( 0.0000,  0.0000,  0.0000)
  48 Cu     8.137169    4.457738   10.118820    ( 0.0000,  0.0000,  0.0000)
  49 Cu     9.434193    5.265468   12.150566    ( 0.0000,  0.0000,  0.0000)
  50 Cu    10.743574    6.035171   14.274300    ( 0.0000,  0.0000,  0.0000)
  51 Cu     8.134717    4.545352   16.455064    ( 0.0000,  0.0000,  0.0000)
  52 Cu     9.457246    5.314236   18.632681    ( 0.0000,  0.0000,  0.0000)
  53 Cu    10.769981    6.015379   20.766684    ( 0.0000,  0.0000,  0.0000)
  54 Cl     5.720641    2.510156   22.500035    ( 0.0000,  0.0000,  0.0000)
  55 Cl     5.022873    3.603522    8.124256    ( 0.0000,  0.0000,  0.0000)
  56 Cl     8.010238    4.491417   22.573969    ( 0.0000,  0.0000,  0.0000)
  57 Cl     2.915493    1.431449    8.112355    ( 0.0000,  0.0000,  0.0000)
  58 Cl     7.705457    5.313573    8.098844    ( 0.0000,  0.0000,  0.0000)
  59 Cl     3.192639    0.624942   22.562706    ( 0.0000,  0.0000,  0.0000)
  60 Cl     3.129084    4.175258   22.560636    ( 0.0000,  0.0000,  0.0000)
  61 Cl     7.806764    2.036867    8.134306    ( 0.0000,  0.0000,  0.0000)
  62 Cl     2.898332    5.897018    8.179543    ( 0.0000,  0.0000,  0.0000)
  63 Cl     7.981457    0.334672   22.516584    ( 0.0000,  0.0000,  0.0000)
  64 Cl     5.560576    4.538067   22.126921    ( 0.0000,  0.0000,  0.0000)
  65 Cl     5.470395    1.484836    8.588909    ( 0.0000,  0.0000,  0.0000)

Unit cell:
           periodic     x           y           z      points  spacing
  1. axis:    yes    7.851007    0.000000    0.000000    45     0.1511
  2. axis:    yes    3.925503    6.799171    0.000000    45     0.1511
  3. axis:    yes    0.000000    0.000000   30.683867   175     0.1753

  Lengths:   7.851007   7.851006  30.683867
  Angles:   90.000000  90.000000  60.000001

Effective grid spacing dv^(1/3) = 0.1666

     iter     time        total  log10-change:
                         energy  eigst   dens
iter:   1 07:12:04 -5017.588892
iter:   2 07:13:02 -5110.208124  +1.45  -0.68
iter:   3 07:13:53 -4728.189914  +0.97  -0.72
iter:   4 07:14:42 -5059.239232  +0.53  -0.97
iter:   5 07:15:31 -4601.257401  -0.87  -0.77
iter:   6 07:16:20 -4578.168360  -0.98  -1.31
iter:   7 07:17:09 -4540.507171  -1.76  -1.31
iter:   8 07:17:59 -4525.461844  -1.24  -1.48
iter:   9 07:18:49 -4518.966389  -2.19  -1.54
iter:  10 07:19:43 -4519.996614  -2.82  -1.59
iter:  11 07:20:39 -4519.798635  -2.37  -1.60
iter:  12 07:21:35 -4519.474968  -2.61  -1.63
iter:  13 07:22:29 -4517.533587  -2.69  -1.64
iter:  14 07:23:19 -4516.700817  -1.62  -1.67
iter:  15 07:24:08 -4517.758374  -2.43  -1.82
iter:  16 07:24:53 -4516.287317  -2.36  -1.87
iter:  17 07:25:41 -4515.507363  -3.37  -1.94
iter:  18 07:26:30 -4514.648237  -2.53  -2.07
iter:  19 07:27:20 -4516.138418  -3.00  -2.22
iter:  20 07:28:09 -4514.663090  -2.90  -2.06
iter:  21 07:29:03 -4514.493249  -3.54  -2.36
iter:  22 07:29:58 -4514.636176c -4.16  -2.51
iter:  23 07:30:56 -4514.377816c -4.12  -2.42
iter:  24 07:31:50 -4514.616850c -3.62  -2.68
iter:  25 07:32:48 -4514.347297c -3.94  -2.42
iter:  26 07:33:41 -4514.384806c -4.19  -2.85
iter:  27 07:34:30 -4514.348384c -4.18  -2.73
iter:  28 07:35:21 -4514.332550c -4.34  -2.93
iter:  29 07:36:12 -4514.325230c -5.21  -3.15
iter:  30 07:37:01 -4514.326067c -5.18  -3.42
iter:  31 07:37:54 -4514.323539c -5.93  -3.29
iter:  32 07:38:46 -4514.324296c -5.94  -3.51
iter:  33 07:39:38 -4514.323905c -5.22  -3.51
iter:  34 07:40:29 -4514.323446c -6.30  -3.68
iter:  35 07:41:20 -4514.323261c -5.87  -3.84
iter:  36 07:42:12 -4514.323230c -6.60  -4.05c
iter:  37 07:43:09 -4514.323269c -7.31  -4.12c
iter:  38 07:44:00 -4514.323155c -6.64  -4.13c
iter:  39 07:44:49 -4514.323243c -6.69  -4.25c
iter:  40 07:45:42 -4514.323168c -7.14  -4.29c
iter:  41 07:46:40 -4514.323204c -7.54c -4.51c

Converged after 41 iterations.

Dipole moment: (-3.974056, -13.520098, 0.111398) |e|*Ang

Energy contributions relative to reference atoms: (reference = -2581817.792169)

Kinetic:       +645.924519
Potential:     -637.099052
External:        +0.000000
XC:            -4522.190274
Entropy (-ST):   -0.802951
Local:           -0.556921
--------------------------
Free energy:   -4514.724680
Extrapolated:  -4514.323204

Showing only first 2 kpts
 Kpt  Band  Eigenvalues  Occupancy
  0   337      0.95516    1.18453
  0   338      0.97725    1.07607
  0   339      1.03080    0.81077
  0   340      1.12366    0.42442

  1   337      0.79998    1.74541
  1   338      0.89127    1.46693
  1   339      0.92876    1.30832
  1   340      0.98559    1.03453


Fermi level: 0.99249

No gap

Forces in eV/Ang:
  0 Cu   -0.20085   -0.14449    0.20839
  1 Cu   -2.93987    1.49464    3.47154
  2 Cu    0.22452   -0.14126    0.27694
  3 Cu    0.06933   -0.02181    0.22450
  4 Cu    0.09255   -0.01191   -0.06681
  5 Cu   -0.01135   -0.01932   -0.04664
  6 Cu    0.01320    0.10017    0.15689
  7 Cu   -0.09372   -0.05554    0.26137
  8 Cu    0.01219    0.01244   -0.03144
  9 Cu    0.01300    0.01535    0.04520
 10 Cu   -0.02475    0.00334   -0.01428
 11 Cu   -0.01447    0.00535    0.03081
 12 Cu    0.00431    0.02589   -0.01520
 13 Cu   -0.00262   -0.00873   -0.04180
 14 Cu   -0.01609    0.01744   -0.02573
 15 Cu    0.00127   -0.01193    0.06195
 16 Cu    0.08261    0.02802    0.06676
 17 Cu   -0.01951   -0.05425    0.03396
 18 Cu   -0.01680   -0.09333   -0.13510
 19 Cu   -0.01937   -0.02716    0.00638
 20 Cu   -0.04994   -0.19128   -0.47905
 21 Cu    2.35334   -1.10304   -3.03615
 22 Cu   -0.03900    0.00033   -0.22383
 23 Cu   -2.04349   -0.96487   -2.69961
 24 Cu    0.06552    0.19683    0.37017
 25 Cu   -0.09799    0.00733    0.26553
 26 Cu    0.00026    0.00579   -0.01845
 27 Cu    0.00729    0.01758   -0.02723
 28 Cu   -0.00735   -0.02289    0.00885
 29 Cu    0.00778    0.00962    0.00854
 30 Cu   -0.00643   -0.01859    0.02262
 31 Cu   -0.02139   -0.00695   -0.00128
 32 Cu   -0.10033    0.04844   -0.21227
 33 Cu    0.08159    0.05738   -0.25335
 34 Cu    0.20747    0.17236   -0.26587
 35 Cu   -0.00522    2.84656   -2.33311
 36 Cu   -0.07477   -2.57745    2.24695
 37 Cu    1.68187    0.93880    2.27327
 38 Cu   -0.09663   -0.03686   -0.06667
 39 Cu    0.10645   -0.05346    0.18238
 40 Cu    0.02714    0.00761    0.01138
 41 Cu    0.00666    0.00465   -0.06111
 42 Cu   -0.01076   -0.00678   -0.01436
 43 Cu    0.01429   -0.01330   -0.03368
 44 Cu   -0.09232    0.01291    0.07149
 45 Cu    0.01489   -0.01800    0.01375
 46 Cu    0.07302    0.00306   -0.24321
 47 Cu   -0.03294    0.01714   -0.28663
 48 Cu    0.01351    0.01219    0.18349
 49 Cu    0.00887    0.06711   -0.03662
 50 Cu    0.02128   -0.02115    0.02534
 51 Cu    0.02688   -0.00677    0.00944
 52 Cu    0.00726    0.01751    0.04482
 53 Cu   -0.24471    0.16090   -0.29810
 54 Cl    0.54621   -6.05447    2.82267
 55 Cl   -0.97084    4.67528   -2.23006
 56 Cl    2.91231   -0.33728    1.27872
 57 Cl   -2.26370    0.20718   -1.06787
 58 Cl   -0.14822   -0.09213   -0.23039
 59 Cl    0.27952    0.24847    0.37824
 60 Cl   -2.84526   -0.58020    1.20964
 61 Cl    3.22988    0.74489   -1.34502
 62 Cl    0.97676   -1.22449   -0.67643
 63 Cl   -0.53676    0.61387    0.51649
 64 Cl   -0.61544    5.13154    4.07554
 65 Cl    0.47806   -4.00462   -4.33545

System changes: positions 

Initializing position-dependent things.

Density initialized from wave functions
                                              
                                              
                                              
                                              
                                              
                 Cl    Cl    Cl               
                      ClCu    Cu     Cu       
               Cl          Cl   Cu            
                   Cu     Cu                  
               Cu   CCu    CCu   Cu           
                             Cu               
                Cu    Cu                      
           Cu   CCu    CCu   Cu               
                                              
            Cu    Cu    CCu   Cu     Cu       
       Cu     Cu   CCu    Cu    Cu            
                                              
               Cu   CCu    CCu   Cu           
                      Cu    Cu                
               Cu                             
           Cu   CCu    CCu   Cu               
                  Cu     Cu                   
            Cu   Cl          Cl               
       Cu     Cu    Cul                       
              Cl     Cl    Cl                 
                                              
                                              
                                              
                                              
                                              

Positions:
   0 Cu     2.871922   -0.086803    9.923876    ( 0.0000,  0.0000,  0.0000)
   1 Cu     4.121583    2.286623   10.040842    ( 0.0000,  0.0000,  0.0000)
   2 Cu     0.274450    0.002951    9.944101    ( 0.0000,  0.0000,  0.0000)
   3 Cu     1.558642    2.266623    9.917986    ( 0.0000,  0.0000,  0.0000)
   4 Cu     2.867412    3.001602   12.082944    ( 0.0000,  0.0000,  0.0000)
   5 Cu     1.576883    0.721303   12.055694    ( 0.0000,  0.0000,  0.0000)
   6 Cu     5.479347    3.001584   12.158487    ( 0.0000,  0.0000,  0.0000)
   7 Cu     4.206295    0.731678   12.067440    ( 0.0000,  0.0000,  0.0000)
   8 Cu     5.504626    1.503004   14.273948    ( 0.0000,  0.0000,  0.0000)
   9 Cu     6.823833    3.769828   14.278891    ( 0.0000,  0.0000,  0.0000)
  10 Cu     2.895290    1.500590   14.217501    ( 0.0000,  0.0000,  0.0000)
  11 Cu     4.190912    3.775021   14.269060    ( 0.0000,  0.0000,  0.0000)
  12 Cu     2.907849   -0.002645   16.400215    ( 0.0000,  0.0000,  0.0000)
  13 Cu     4.203682    2.271062   16.401318    ( 0.0000,  0.0000,  0.0000)
  14 Cu     0.291307   -0.003450   16.402104    ( 0.0000,  0.0000,  0.0000)
  15 Cu     1.597345    2.272657   16.384845    ( 0.0000,  0.0000,  0.0000)
  16 Cu     2.910330    3.052999   18.546057    ( 0.0000,  0.0000,  0.0000)
  17 Cu     1.612833    0.759701   18.509863    ( 0.0000,  0.0000,  0.0000)
  18 Cu     5.546020    3.036133   18.522728    ( 0.0000,  0.0000,  0.0000)
  19 Cu     4.232507    0.740799   18.510338    ( 0.0000,  0.0000,  0.0000)
  20 Cu     5.546478    1.425662   20.530811    ( 0.0000,  0.0000,  0.0000)
  21 Cu     6.888898    3.735785   20.604773    ( 0.0000,  0.0000,  0.0000)
  22 Cu     2.916890    1.561591   20.537079    ( 0.0000,  0.0000,  0.0000)
  23 Cu     4.248380    3.732928   20.567964    ( 0.0000,  0.0000,  0.0000)
  24 Cu     5.509305    4.569778   10.104921    ( 0.0000,  0.0000,  0.0000)
  25 Cu     2.887492    4.477334   10.025444    ( 0.0000,  0.0000,  0.0000)
  26 Cu     4.192967    5.295910   12.140457    ( 0.0000,  0.0000,  0.0000)
  27 Cu     6.802960    5.283761   12.150726    ( 0.0000,  0.0000,  0.0000)
  28 Cu     8.126075    6.039218   14.262903    ( 0.0000,  0.0000,  0.0000)
  29 Cu     5.512509    6.039996   14.278374    ( 0.0000,  0.0000,  0.0000)
  30 Cu     5.521591    4.539531   16.413149    ( 0.0000,  0.0000,  0.0000)
  31 Cu     2.900825    4.548136   16.445308    ( 0.0000,  0.0000,  0.0000)
  32 Cu     4.251200    5.312335   18.595791    ( 0.0000,  0.0000,  0.0000)
  33 Cu     6.823715    5.311860   18.618990    ( 0.0000,  0.0000,  0.0000)
  34 Cu     8.162501    6.085074   20.775021    ( 0.0000,  0.0000,  0.0000)
  35 Cu     5.553539    6.168721   20.767251    ( 0.0000,  0.0000,  0.0000)
  36 Cu     5.469344   -0.115482    9.997025    ( 0.0000,  0.0000,  0.0000)
  37 Cu     6.780488    2.279071   10.167334    ( 0.0000,  0.0000,  0.0000)
  38 Cu     8.131916    2.986416   12.147919    ( 0.0000,  0.0000,  0.0000)
  39 Cu     6.791621    0.722040   12.130322    ( 0.0000,  0.0000,  0.0000)
  40 Cu     8.133261    1.491946   14.249415    ( 0.0000,  0.0000,  0.0000)
  41 Cu     9.436962    3.771321   14.290958    ( 0.0000,  0.0000,  0.0000)
  42 Cu     5.520714   -0.005259   16.390685    ( 0.0000,  0.0000,  0.0000)
  43 Cu     6.836482    2.267504   16.405920    ( 0.0000,  0.0000,  0.0000)
  44 Cu     8.168448    3.040387   18.565847    ( 0.0000,  0.0000,  0.0000)
  45 Cu     6.844758    0.730195   18.509951    ( 0.0000,  0.0000,  0.0000)
  46 Cu     8.161751    1.544068   20.571615    ( 0.0000,  0.0000,  0.0000)
  47 Cu     9.462118    3.745832   20.758155    ( 0.0000,  0.0000,  0.0000)
  48 Cu     8.137572    4.458102   10.124295    ( 0.0000,  0.0000,  0.0000)
  49 Cu     9.434458    5.267471   12.149473    ( 0.0000,  0.0000,  0.0000)
  50 Cu    10.744209    6.034540   14.275056    ( 0.0000,  0.0000,  0.0000)
  51 Cu     8.135519    4.545150   16.455346    ( 0.0000,  0.0000,  0.0000)
  52 Cu     9.457463    5.314758   18.634018    ( 0.0000,  0.0000,  0.0000)
  53 Cu    10.762679    6.020180   20.757789    ( 0.0000,  0.0000,  0.0000)
  54 Cl     5.736940    2.329491   22.584263    ( 0.0000,  0.0000,  0.0000)
  55 Cl     4.993903    3.743032    8.057711    ( 0.0000,  0.0000,  0.0000)
  56 Cl     8.097141    4.481353   22.612126    ( 0.0000,  0.0000,  0.0000)
  57 Cl     2.847944    1.437631    8.080490    ( 0.0000,  0.0000,  0.0000)
  58 Cl     7.701034    5.310824    8.091969    ( 0.0000,  0.0000,  0.0000)
  59 Cl     3.200980    0.632356   22.573993    ( 0.0000,  0.0000,  0.0000)
  60 Cl     3.044182    4.157945   22.596732    ( 0.0000,  0.0000,  0.0000)
  61 Cl     7.903143    2.059094    8.094171    ( 0.0000,  0.0000,  0.0000)
  62 Cl     2.927479    5.860479    8.159358    ( 0.0000,  0.0000,  0.0000)
  63 Cl     7.965440    0.352990   22.531996    ( 0.0000,  0.0000,  0.0000)
  64 Cl     5.542211    4.691192   22.248535    ( 0.0000,  0.0000,  0.0000)
  65 Cl     5.484660    1.365339    8.459539    ( 0.0000,  0.0000,  0.0000)

Unit cell:
           periodic     x           y           z      points  spacing
  1. axis:    yes    7.851007    0.000000    0.000000    45     0.1511
  2. axis:    yes    3.925503    6.799171    0.000000    45     0.1511
  3. axis:    yes    0.000000    0.000000   30.683867   175     0.1753

  Lengths:   7.851007   7.851006  30.683867
  Angles:   90.000000  90.000000  60.000001

Effective grid spacing dv^(1/3) = 0.1666

     iter     time        total  log10-change:
                         energy  eigst   dens
iter:   1 07:48:02 -4536.094717  -0.87
iter:   2 07:48:51 -4523.109085  -1.59  -1.72
iter:   3 07:49:40 -4521.220095  -2.52  -1.98
iter:   4 07:50:29 -4521.648247  -1.78  -2.11
iter:   5 07:51:22 -4520.023600  -2.63  -2.05
iter:   6 07:52:16 -4520.269068  -3.12  -2.34
iter:   7 07:53:05 -4519.687033  -2.95  -2.32
iter:   8 07:53:55 -4519.681651  -3.85  -2.70
iter:   9 07:54:45 -4519.656359c -3.89  -2.74
iter:  10 07:55:37 -4519.643155c -4.48  -2.87
iter:  11 07:56:30 -4519.641522c -4.14  -2.98
iter:  12 07:57:20 -4519.637109c -4.98  -3.11
iter:  13 07:58:12 -4519.635307c -4.79  -3.13
iter:  14 07:59:01 -4519.628779c -4.84  -3.17
iter:  15 07:59:55 -4519.627586c -5.83  -3.43
iter:  16 08:00:52 -4519.626936c -5.27  -3.54
iter:  17 08:01:48 -4519.626788c -5.38  -3.66
iter:  18 08:02:37 -4519.626718c -6.65  -3.92
iter:  19 08:03:28 -4519.626575c -6.19  -3.96
iter:  20 08:04:17 -4519.626774c -6.08  -4.06c
iter:  21 08:05:14 -4519.626690c -7.02  -4.15c
iter:  22 08:06:03 -4519.626653c -7.58c -4.31c

Converged after 22 iterations.

Dipole moment: (-0.262231, -10.096521, 0.031374) |e|*Ang

Energy contributions relative to reference atoms: (reference = -2581817.792169)

Kinetic:       +594.737771
Potential:     -599.749311
External:        +0.000000
XC:            -4513.584068
Entropy (-ST):   -0.765086
Local:           -0.648501
--------------------------
Free energy:   -4520.009196
Extrapolated:  -4519.626653

Showing only first 2 kpts
 Kpt  Band  Eigenvalues  Occupancy
  0   337      0.78729    0.96122
  0   338      0.84410    0.68792
  0   339      0.87565    0.55328
  0   340      0.93454    0.35013

  1   337      0.60234    1.70938
  1   338      0.63344    1.62334
  1   339      0.69455    1.40104
  1   340      0.72731    1.25529


Fermi level: 0.77953

No gap

Forces in eV/Ang:
  0 Cu   -0.05960   -0.00813   -0.00921
  1 Cu   -0.19250    0.16796    0.37196
  2 Cu    0.05620   -0.09327    0.10571
  3 Cu   -0.00880   -0.04331    0.12677
  4 Cu   -0.05477    0.05020    0.19994
  5 Cu   -0.00468   -0.00808   -0.01124
  6 Cu   -0.00749    0.10157    0.21520
  7 Cu   -0.07449   -0.06231    0.28790
  8 Cu    0.01177    0.00671   -0.01042
  9 Cu    0.01692    0.01697    0.04544
 10 Cu   -0.02789    0.00629    0.00512
 11 Cu   -0.01633    0.00865    0.03818
 12 Cu    0.00025    0.02417   -0.02304
 13 Cu   -0.01019   -0.01112   -0.04430
 14 Cu   -0.01341    0.01686   -0.03077
 15 Cu    0.00177   -0.00898    0.05498
 16 Cu   -0.03380   -0.01867   -0.14215
 17 Cu   -0.01876   -0.00795   -0.05995
 18 Cu   -0.00398   -0.09829   -0.21339
 19 Cu   -0.02011   -0.02217   -0.03718
 20 Cu   -0.01170    0.20085    0.06785
 21 Cu    0.16810   -0.17674   -0.25562
 22 Cu    0.02099   -0.04561    0.02926
 23 Cu   -0.29428   -0.15047   -0.25317
 24 Cu   -0.01039   -0.13032   -0.03936
 25 Cu   -0.03655    0.08046    0.07660
 26 Cu   -0.00674    0.00547    0.02749
 27 Cu    0.01411    0.01160    0.01842
 28 Cu   -0.00189   -0.02349    0.01760
 29 Cu    0.00673    0.00852    0.00250
 30 Cu   -0.00425   -0.01223    0.00575
 31 Cu   -0.02645   -0.00810   -0.01220
 32 Cu   -0.07649    0.06375   -0.23217
 33 Cu    0.06086    0.06663   -0.26788
 34 Cu    0.04177    0.06617   -0.03688
 35 Cu    0.01943    1.13117   -1.37053
 36 Cu   -0.02623   -0.83832    1.04238
 37 Cu    0.32412    0.12625    0.14367
 38 Cu    0.02432    0.01853    0.12836
 39 Cu    0.08241   -0.06835    0.20207
 40 Cu    0.02964    0.00909    0.01783
 41 Cu    0.00508    0.00236   -0.05156
 42 Cu   -0.00960   -0.00905   -0.00893
 43 Cu    0.01835   -0.01441   -0.03536
 44 Cu    0.03506   -0.03382   -0.17242
 45 Cu    0.01530   -0.01631   -0.03189
 46 Cu   -0.01084   -0.05139    0.00747
 47 Cu   -0.00160    0.03262   -0.19520
 48 Cu   -0.04517    0.02062    0.00038
 49 Cu    0.01098   -0.00958    0.09790
 50 Cu    0.01736   -0.02020    0.03269
 51 Cu    0.02919   -0.00854   -0.00604
 52 Cu    0.00162    0.00963    0.00778
 53 Cu   -0.06848    0.12407   -0.09953
 54 Cl    0.37754   -2.65176    0.82657
 55 Cl   -0.58554    2.10714   -0.71201
 56 Cl    1.21951   -0.40732    0.46450
 57 Cl   -1.11726    0.28077   -0.43469
 58 Cl   -0.02238   -0.01460    0.00024
 59 Cl    0.09999    0.19768    0.05018
 60 Cl   -1.22275   -0.47338    0.43594
 61 Cl    1.57787    0.54004   -0.44694
 62 Cl    0.91527   -1.07235   -0.38906
 63 Cl   -0.48462    0.59849    0.20092
 64 Cl    0.08723    1.59625    1.36841
 65 Cl   -0.68535   -1.08137   -1.08065

System changes: positions 

Initializing position-dependent things.

Density initialized from wave functions
                                              
                                              
                                              
                                              
                                              
                Cl     Cl    Cl               
                      ClCu    Cu     Cu       
               Cl         Cl    Cu            
                   Cu     Cu                  
               Cu   CCu    CCu   Cu           
                                              
                Cu    Cu     Cu               
           Cu   CCu    CCu   Cu               
                                              
            Cu    Cu    CCu   Cu     Cu       
       Cu     Cu   CCu    Cu    Cu            
                                              
               Cu   CCu   CuCu   Cu           
               Cu     Cu    Cu                
                                              
           Cu   CCu    CCu   Cu               
                         Cu                   
            Cu   CCu         Cl               
       Cu     Cu    Cul                       
              Cl     Cl     Cl                
                                              
                                              
                                              
                                              
                                              

Positions:
   0 Cu     2.869079   -0.084484    9.917903    ( 0.0000,  0.0000,  0.0000)
   1 Cu     4.165360    2.273171   10.007317    ( 0.0000,  0.0000,  0.0000)
   2 Cu     0.276319   -0.005499    9.950978    ( 0.0000,  0.0000,  0.0000)
   3 Cu     1.555934    2.261687    9.928720    ( 0.0000,  0.0000,  0.0000)
   4 Cu     2.858392    3.008182   12.109603    ( 0.0000,  0.0000,  0.0000)
   5 Cu     1.576558    0.720736   12.055360    ( 0.0000,  0.0000,  0.0000)
   6 Cu     5.478101    3.012027   12.181891    ( 0.0000,  0.0000,  0.0000)
   7 Cu     4.199105    0.725134   12.097562    ( 0.0000,  0.0000,  0.0000)
   8 Cu     5.505822    1.503560   14.273366    ( 0.0000,  0.0000,  0.0000)
   9 Cu     6.825658    3.771605   14.283554    ( 0.0000,  0.0000,  0.0000)
  10 Cu     2.892359    1.501303   14.218474    ( 0.0000,  0.0000,  0.0000)
  11 Cu     4.189195    3.775984   14.273144    ( 0.0000,  0.0000,  0.0000)
  12 Cu     2.907781   -0.000208   16.397673    ( 0.0000,  0.0000,  0.0000)
  13 Cu     4.202463    2.269867   16.396719    ( 0.0000,  0.0000,  0.0000)
  14 Cu     0.289994   -0.001736   16.398834    ( 0.0000,  0.0000,  0.0000)
  15 Cu     1.597538    2.271804   16.390318    ( 0.0000,  0.0000,  0.0000)
  16 Cu     2.904175    3.050006   18.526659    ( 0.0000,  0.0000,  0.0000)
  17 Cu     1.610928    0.759956   18.501548    ( 0.0000,  0.0000,  0.0000)
  18 Cu     5.545908    3.025944   18.499048    ( 0.0000,  0.0000,  0.0000)
  19 Cu     4.230429    0.738642   18.505521    ( 0.0000,  0.0000,  0.0000)
  20 Cu     5.546162    1.455312   20.550408    ( 0.0000,  0.0000,  0.0000)
  21 Cu     6.855615    3.739082   20.642846    ( 0.0000,  0.0000,  0.0000)
  22 Cu     2.920428    1.555854   20.545928    ( 0.0000,  0.0000,  0.0000)
  23 Cu     4.258653    3.736331   20.598565    ( 0.0000,  0.0000,  0.0000)
  24 Cu     5.506486    4.548859   10.091420    ( 0.0000,  0.0000,  0.0000)
  25 Cu     2.885166    4.487271   10.028929    ( 0.0000,  0.0000,  0.0000)
  26 Cu     4.192115    5.296463   12.144337    ( 0.0000,  0.0000,  0.0000)
  27 Cu     6.804563    5.284811   12.153669    ( 0.0000,  0.0000,  0.0000)
  28 Cu     8.126007    6.036796   14.264909    ( 0.0000,  0.0000,  0.0000)
  29 Cu     5.513174    6.040843   14.278491    ( 0.0000,  0.0000,  0.0000)
  30 Cu     5.521206    4.538425   16.413349    ( 0.0000,  0.0000,  0.0000)
  31 Cu     2.897997    4.547279   16.443805    ( 0.0000,  0.0000,  0.0000)
  32 Cu     4.243912    5.319224   18.571535    ( 0.0000,  0.0000,  0.0000)
  33 Cu     6.829474    5.318903   18.591198    ( 0.0000,  0.0000,  0.0000)
  34 Cu     8.162952    6.089401   20.776535    ( 0.0000,  0.0000,  0.0000)
  35 Cu     5.556101    6.245007   20.649031    ( 0.0000,  0.0000,  0.0000)
  36 Cu     5.467778   -0.161204   10.076018    ( 0.0000,  0.0000,  0.0000)
  37 Cu     6.782323    2.273228   10.132833    ( 0.0000,  0.0000,  0.0000)
  38 Cu     8.137204    2.989596   12.165583    ( 0.0000,  0.0000,  0.0000)
  39 Cu     6.799512    0.714691   12.151489    ( 0.0000,  0.0000,  0.0000)
  40 Cu     8.136357    1.492912   14.251392    ( 0.0000,  0.0000,  0.0000)
  41 Cu     9.437445    3.771510   14.285895    ( 0.0000,  0.0000,  0.0000)
  42 Cu     5.519757   -0.006239   16.389895    ( 0.0000,  0.0000,  0.0000)
  43 Cu     6.838457    2.266002   16.402257    ( 0.0000,  0.0000,  0.0000)
  44 Cu     8.174987    3.035841   18.542537    ( 0.0000,  0.0000,  0.0000)
  45 Cu     6.846336    0.728562   18.505628    ( 0.0000,  0.0000,  0.0000)
  46 Cu     8.158701    1.537543   20.578175    ( 0.0000,  0.0000,  0.0000)
  47 Cu     9.462678    3.749534   20.740261    ( 0.0000,  0.0000,  0.0000)
  48 Cu     8.131586    4.460410   10.120102    ( 0.0000,  0.0000,  0.0000)
  49 Cu     9.435632    5.264715   12.162617    ( 0.0000,  0.0000,  0.0000)
  50 Cu    10.745898    6.032492   14.278577    ( 0.0000,  0.0000,  0.0000)
  51 Cu     8.138564    4.544233   16.454369    ( 0.0000,  0.0000,  0.0000)
  52 Cu     9.457498    5.315564   18.633960    ( 0.0000,  0.0000,  0.0000)
  53 Cu    10.759734    6.032046   20.752177    ( 0.0000,  0.0000,  0.0000)
  54 Cl     5.771737    2.136356   22.622841    ( 0.0000,  0.0000,  0.0000)
  55 Cl     4.942795    3.899638    8.019824    ( 0.0000,  0.0000,  0.0000)
  56 Cl     8.183004    4.437985   22.640913    ( 0.0000,  0.0000,  0.0000)
  57 Cl     2.759932    1.468110    8.050572    ( 0.0000,  0.0000,  0.0000)
  58 Cl     7.701649    5.311120    8.097325    ( 0.0000,  0.0000,  0.0000)
  59 Cl     3.207078    0.651444   22.571552    ( 0.0000,  0.0000,  0.0000)
  60 Cl     2.956362    4.111895   22.623528    ( 0.0000,  0.0000,  0.0000)
  61 Cl     8.026678    2.109710    8.069121    ( 0.0000,  0.0000,  0.0000)
  62 Cl     3.019867    5.754087    8.126125    ( 0.0000,  0.0000,  0.0000)
  63 Cl     7.916974    0.413976   22.545294    ( 0.0000,  0.0000,  0.0000)
  64 Cl     5.567393    4.773078   22.326212    ( 0.0000,  0.0000,  0.0000)
  65 Cl     5.387524    1.322077    8.424015    ( 0.0000,  0.0000,  0.0000)

Unit cell:
           periodic     x           y           z      points  spacing
  1. axis:    yes    7.851007    0.000000    0.000000    45     0.1511
  2. axis:    yes    3.925503    6.799171    0.000000    45     0.1511
  3. axis:    yes    0.000000    0.000000   30.683867   175     0.1753

  Lengths:   7.851007   7.851006  30.683867
  Angles:   90.000000  90.000000  60.000001

Effective grid spacing dv^(1/3) = 0.1666

     iter     time        total  log10-change:
                         energy  eigst   dens
iter:   1 08:07:23 -4528.431629  -1.31
iter:   2 08:08:21 -4522.683914  -1.80  -1.84
iter:   3 08:09:15 -4521.828663  -2.92  -2.05
iter:   4 08:10:13 -4521.327510  -3.88  -2.23
iter:   5 08:11:05 -4521.301449  -4.23  -2.38
iter:   6 08:11:56 -4521.300471c -3.14  -2.41
iter:   7 08:12:52 -4521.167970c -3.90  -2.43
iter:   8 08:13:47 -4521.064677c -3.82  -2.56
iter:   9 08:14:37 -4521.096208c -4.00  -2.86
iter:  10 08:15:27 -4521.048772c -4.65  -2.79
iter:  11 08:16:17 -4521.057691c -4.69  -3.00
iter:  12 08:17:10 -4521.040554c -4.73  -3.00
iter:  13 08:18:04 -4521.036900c -5.22  -3.37
iter:  14 08:18:53 -4521.036953c -5.07  -3.47
iter:  15 08:19:43 -4521.036695c -5.77  -3.56
iter:  16 08:20:32 -4521.036246c -6.43  -3.76
iter:  17 08:21:22 -4521.035966c -6.45  -3.84
iter:  18 08:22:13 -4521.036670c -6.07  -3.91
iter:  19 08:23:07 -4521.035998c -6.19  -3.83
iter:  20 08:23:56 -4521.036004c -6.41  -4.09c
iter:  21 08:24:46 -4521.036017c -6.90  -4.29c
iter:  22 08:25:36 -4521.036023c -7.79c -4.38c

Converged after 22 iterations.

Dipole moment: (6.869800, -7.310166, 0.005647) |e|*Ang

Energy contributions relative to reference atoms: (reference = -2581817.792169)

Kinetic:       +579.112054
Potential:     -588.414075
External:        +0.000000
XC:            -4510.767640
Entropy (-ST):   -0.737379
Local:           -0.597673
--------------------------
Free energy:   -4521.404712
Extrapolated:  -4521.036023

Showing only first 2 kpts
 Kpt  Band  Eigenvalues  Occupancy
  0   337      0.72818    0.96218
  0   338      0.80477    0.60237
  0   339      0.84584    0.44460
  0   340      0.88760    0.31686

  1   337      0.52219    1.75825
  1   338      0.56561    1.64984
  1   339      0.60360    1.52631
  1   340      0.67863    1.20684


Fermi level: 0.72061

No gap

Forces in eV/Ang:
  0 Cu   -0.03939    0.00486   -0.03122
  1 Cu   -0.51129    0.38579    0.71918
  2 Cu   -0.08305   -0.06196    0.02199
  3 Cu    0.12775    0.01835    0.38562
  4 Cu    0.09626   -0.02404   -0.09535
  5 Cu    0.01025   -0.00571   -0.00809
  6 Cu    0.04352    0.01152   -0.02547
  7 Cu   -0.07804    0.05870    0.16449
  8 Cu    0.01010    0.00431    0.02483
  9 Cu    0.01014    0.01823    0.05648
 10 Cu   -0.02292    0.00050    0.04965
 11 Cu   -0.00830    0.01428    0.05955
 12 Cu    0.00110    0.01649   -0.05241
 13 Cu   -0.00508   -0.01544   -0.06186
 14 Cu   -0.01069    0.01050   -0.05263
 15 Cu    0.00411   -0.01104   -0.02772
 16 Cu    0.07138   -0.01181    0.05843
 17 Cu   -0.00971    0.11661   -0.16927
 18 Cu   -0.01977   -0.02071    0.02257
 19 Cu    0.02250    0.02693    0.04540
 20 Cu   -0.07395    0.03775   -0.30401
 21 Cu    0.14678   -0.08683   -0.16724
 22 Cu    0.08705    0.20721   -0.09466
 23 Cu   -0.16566    0.03747   -0.02157
 24 Cu    0.06383   -0.06769    0.12490
 25 Cu   -0.00198   -0.15885    0.21274
 26 Cu    0.02210   -0.02078   -0.00493
 27 Cu   -0.01680   -0.01678   -0.04386
 28 Cu   -0.00291   -0.01843    0.04940
 29 Cu    0.00372    0.00280   -0.00504
 30 Cu   -0.00298   -0.00805   -0.03387
 31 Cu   -0.02005    0.00194   -0.03955
 32 Cu   -0.07004   -0.07556   -0.09755
 33 Cu    0.07147   -0.08706   -0.13763
 34 Cu    0.00050    0.02088    0.02609
 35 Cu   -0.05433   -0.26341   -0.17914
 36 Cu    0.14510   -0.09272    0.19632
 37 Cu    0.22717   -0.04241   -0.04275
 38 Cu   -0.08417   -0.00695   -0.05427
 39 Cu    0.05715    0.06239    0.05096
 40 Cu    0.02447    0.00184    0.03614
 41 Cu    0.00075    0.00139    0.03627
 42 Cu   -0.00543   -0.00551   -0.00569
 43 Cu    0.01075   -0.01656   -0.05866
 44 Cu   -0.09748    0.00696    0.08792
 45 Cu   -0.03454    0.02770    0.03193
 46 Cu   -0.08006    0.21538   -0.09817
 47 Cu   -0.04876   -0.00313   -0.35021
 48 Cu   -0.05727   -0.10440    0.09055
 49 Cu   -0.00278   -0.08148    0.15077
 50 Cu    0.01548   -0.01513    0.05375
 51 Cu    0.02141    0.00071   -0.04700
 52 Cu   -0.00709    0.01201    0.00255
 53 Cu    0.04047    0.07520   -0.02394
 54 Cl   -0.04562   -0.41985    0.64032
 55 Cl    0.18105    0.35811   -0.57162
 56 Cl    0.02755   -0.23750    0.32080
 57 Cl   -0.21331    0.07006   -0.46551
 58 Cl    0.04270    0.12224    0.00655
 59 Cl   -0.12925   -0.00520    0.03198
 60 Cl    0.22227   -0.27496    0.25942
 61 Cl   -0.41348    0.25430   -0.22775
 62 Cl   -0.14190    0.36679   -0.19025
 63 Cl    0.17105   -0.10726    0.11501
 64 Cl   -0.13055    0.75722    0.53460
 65 Cl    0.71042   -0.95099   -0.88969

System changes: positions 

Initializing position-dependent things.

Density initialized from wave functions
                                              
                                              
                                              
                                              
                                              
                Cl     Cl    Cl               
                      ClCu    Cu     Cu       
               Cl         Cl    Cu            
                   Cu     Cu                  
               Cu   CCu    CCu   Cu           
                                              
                Cu    Cu     Cu               
           Cu   CCu    CCu   Cu               
                                              
            Cu    Cu    CCu   Cu     Cu       
       Cu     Cu   CCu    Cu    Cu            
                                              
               Cu   CCu    CCu   Cu           
               Cu     Cu    Cu                
                                              
           Cu   CCu    CCu   Cu               
                  Cu     Cu                   
            Cu   Cl          Cl               
       Cu     Cu    Cul                       
              Cl     Cl     Cl                
                                              
                                              
                                              
                                              
                                              

Positions:
   0 Cu     2.865623   -0.081858    9.910577    ( 0.0000,  0.0000,  0.0000)
   1 Cu     4.151415    2.296964   10.042597    ( 0.0000,  0.0000,  0.0000)
   2 Cu     0.265939   -0.013879    9.953258    ( 0.0000,  0.0000,  0.0000)
   3 Cu     1.568236    2.262165    9.972263    ( 0.0000,  0.0000,  0.0000)
   4 Cu     2.864885    3.007958   12.109082    ( 0.0000,  0.0000,  0.0000)
   5 Cu     1.577660    0.720093   12.054785    ( 0.0000,  0.0000,  0.0000)
   6 Cu     5.482273    3.015992   12.185820    ( 0.0000,  0.0000,  0.0000)
   7 Cu     4.188990    0.729737   12.123489    ( 0.0000,  0.0000,  0.0000)
   8 Cu     5.507222    1.504109   14.276140    ( 0.0000,  0.0000,  0.0000)
   9 Cu     6.827273    3.774061   14.290890    ( 0.0000,  0.0000,  0.0000)
  10 Cu     2.889079    1.501574   14.224326    ( 0.0000,  0.0000,  0.0000)
  11 Cu     4.187830    3.777818   14.280743    ( 0.0000,  0.0000,  0.0000)
  12 Cu     2.907838    0.002192   16.391243    ( 0.0000,  0.0000,  0.0000)
  13 Cu     4.201513    2.267857   16.388790    ( 0.0000,  0.0000,  0.0000)
  14 Cu     0.288524   -0.000160   16.392223    ( 0.0000,  0.0000,  0.0000)
  15 Cu     1.598039    2.270419   16.388649    ( 0.0000,  0.0000,  0.0000)
  16 Cu     2.909049    3.047437   18.525686    ( 0.0000,  0.0000,  0.0000)
  17 Cu     1.609390    0.773184   18.479999    ( 0.0000,  0.0000,  0.0000)
  18 Cu     5.543876    3.021009   18.494514    ( 0.0000,  0.0000,  0.0000)
  19 Cu     4.232325    0.741061   18.508722    ( 0.0000,  0.0000,  0.0000)
  20 Cu     5.538477    1.471387   20.528502    ( 0.0000,  0.0000,  0.0000)
  21 Cu     6.838904    3.740700   20.665122    ( 0.0000,  0.0000,  0.0000)
  22 Cu     2.931448    1.576349   20.540727    ( 0.0000,  0.0000,  0.0000)
  23 Cu     4.262570    3.750232   20.631041    ( 0.0000,  0.0000,  0.0000)
  24 Cu     5.511847    4.532508   10.096978    ( 0.0000,  0.0000,  0.0000)
  25 Cu     2.885025    4.473408   10.050835    ( 0.0000,  0.0000,  0.0000)
  26 Cu     4.194215    5.294349   12.145311    ( 0.0000,  0.0000,  0.0000)
  27 Cu     6.803229    5.283196   12.150173    ( 0.0000,  0.0000,  0.0000)
  28 Cu     8.125734    6.034164   14.270885    ( 0.0000,  0.0000,  0.0000)
  29 Cu     5.513738    6.041354   14.277908    ( 0.0000,  0.0000,  0.0000)
  30 Cu     5.520807    4.537336   16.409539    ( 0.0000,  0.0000,  0.0000)
  31 Cu     2.895035    4.547255   16.439006    ( 0.0000,  0.0000,  0.0000)
  32 Cu     4.234690    5.312975   18.554461    ( 0.0000,  0.0000,  0.0000)
  33 Cu     6.838489    5.311379   18.568919    ( 0.0000,  0.0000,  0.0000)
  34 Cu     8.161301    6.091618   20.782276    ( 0.0000,  0.0000,  0.0000)
  35 Cu     5.551139    6.217283   20.609614    ( 0.0000,  0.0000,  0.0000)
  36 Cu     5.483651   -0.163958   10.104496    ( 0.0000,  0.0000,  0.0000)
  37 Cu     6.792515    2.258179   10.095854    ( 0.0000,  0.0000,  0.0000)
  38 Cu     8.130769    2.990273   12.166407    ( 0.0000,  0.0000,  0.0000)
  39 Cu     6.807489    0.719396   12.162708    ( 0.0000,  0.0000,  0.0000)
  40 Cu     8.139839    1.493377   14.255895    ( 0.0000,  0.0000,  0.0000)
  41 Cu     9.437635    3.771685   14.288626    ( 0.0000,  0.0000,  0.0000)
  42 Cu     5.518933   -0.007115   16.389133    ( 0.0000,  0.0000,  0.0000)
  43 Cu     6.840179    2.263805   16.394926    ( 0.0000,  0.0000,  0.0000)
  44 Cu     8.167501    3.034907   18.543368    ( 0.0000,  0.0000,  0.0000)
  45 Cu     6.843000    0.731165   18.507473    ( 0.0000,  0.0000,  0.0000)
  46 Cu     8.148304    1.558626   20.571975    ( 0.0000,  0.0000,  0.0000)
  47 Cu     9.457877    3.750322   20.698641    ( 0.0000,  0.0000,  0.0000)
  48 Cu     8.123179    4.449772   10.126829    ( 0.0000,  0.0000,  0.0000)
  49 Cu     9.435657    5.254319   12.183854    ( 0.0000,  0.0000,  0.0000)
  50 Cu    10.747971    6.030331   14.285400    ( 0.0000,  0.0000,  0.0000)
  51 Cu     8.141699    4.544054   16.448847    ( 0.0000,  0.0000,  0.0000)
  52 Cu     9.456676    5.316988   18.633814    ( 0.0000,  0.0000,  0.0000)
  53 Cu    10.765302    6.042868   20.750313    ( 0.0000,  0.0000,  0.0000)
  54 Cl     5.773928    2.078289   22.680340    ( 0.0000,  0.0000,  0.0000)
  55 Cl     4.953464    3.950740    7.964701    ( 0.0000,  0.0000,  0.0000)
  56 Cl     8.189576    4.400233   22.674210    ( 0.0000,  0.0000,  0.0000)
  57 Cl     2.726640    1.484401    7.999292    ( 0.0000,  0.0000,  0.0000)
  58 Cl     7.707825    5.325313    8.101956    ( 0.0000,  0.0000,  0.0000)
  59 Cl     3.192656    0.655256   22.570783    ( 0.0000,  0.0000,  0.0000)
  60 Cl     2.975618    4.071330   22.650096    ( 0.0000,  0.0000,  0.0000)
  61 Cl     7.995585    2.148136    8.047810    ( 0.0000,  0.0000,  0.0000)
  62 Cl     3.027680    5.768052    8.100051    ( 0.0000,  0.0000,  0.0000)
  63 Cl     7.923578    0.417936   22.557741    ( 0.0000,  0.0000,  0.0000)
  64 Cl     5.567466    4.837531   22.374529    ( 0.0000,  0.0000,  0.0000)
  65 Cl     5.426699    1.239854    8.354091    ( 0.0000,  0.0000,  0.0000)

Unit cell:
           periodic     x           y           z      points  spacing
  1. axis:    yes    7.851007    0.000000    0.000000    45     0.1511
  2. axis:    yes    3.925503    6.799171    0.000000    45     0.1511
  3. axis:    yes    0.000000    0.000000   30.683867   175     0.1753

  Lengths:   7.851007   7.851006  30.683867
  Angles:   90.000000  90.000000  60.000001

Effective grid spacing dv^(1/3) = 0.1666

     iter     time        total  log10-change:
                         energy  eigst   dens
iter:   1 08:26:55 -4529.637708  -1.61
iter:   2 08:27:47 -4522.769710  -1.80  -1.82
iter:   3 08:28:28 -4521.938698  -3.04  -2.11
iter:   4 08:29:18 -4521.589665  -4.10  -2.31
iter:   5 08:30:15 -4521.570535  -4.01  -2.46
iter:   6 08:31:03 -4521.540449c -3.38  -2.50
iter:   7 08:31:53 -4521.502749c -4.32  -2.58
iter:   8 08:32:42 -4521.439773c -3.86  -2.64
iter:   9 08:33:32 -4521.402101c -4.18  -2.81
iter:  10 08:34:22 -4521.410634c -4.92  -3.14
iter:  11 08:35:10 -4521.399294c -5.70  -3.06
iter:  12 08:36:00 -4521.396303c -5.48  -3.29
iter:  13 08:36:54 -4521.395527c -5.67  -3.53
iter:  14 08:37:51 -4521.395116c -5.86  -3.59
iter:  15 08:38:46 -4521.395053c -6.64  -3.69
iter:  16 08:39:36 -4521.395159c -5.54  -3.77
iter:  17 08:40:30 -4521.395147c -6.57  -4.03c
iter:  18 08:41:25 -4521.394878c -7.18  -4.10c
iter:  19 08:42:22 -4521.394997c -7.38  -4.18c
iter:  20 08:43:12 -4521.394942c -7.36  -4.28c
iter:  21 08:44:02 -4521.395060c -7.46c -4.41c

Converged after 21 iterations.

Dipole moment: (7.055416, -6.954079, 0.005102) |e|*Ang

Energy contributions relative to reference atoms: (reference = -2581817.792169)

Kinetic:       +565.341136
Potential:     -577.670681
External:        +0.000000
XC:            -4508.083514
Entropy (-ST):   -0.740007
Local:           -0.611997
--------------------------
Free energy:   -4521.765063
Extrapolated:  -4521.395060

Showing only first 2 kpts
 Kpt  Band  Eigenvalues  Occupancy
  0   337      0.68449    0.95718
  0   338      0.76233    0.59296
  0   339      0.80331    0.43717
  0   340      0.83254    0.34553

  1   337      0.46630    1.78107
  1   338      0.51348    1.67080
  1   339      0.54199    1.58473
  1   340      0.61102    1.31356


Fermi level: 0.67592

No gap

Forces in eV/Ang:
  0 Cu    0.00834    0.08511   -0.12218
  1 Cu    0.00586   -0.09608   -0.03544
  2 Cu   -0.00176   -0.06874    0.01158
  3 Cu    0.02341   -0.11461   -0.00885
  4 Cu    0.04333   -0.02098    0.09425
  5 Cu    0.00057   -0.02856    0.02102
  6 Cu    0.08764   -0.03985   -0.06936
  7 Cu   -0.00618    0.01253    0.04714
  8 Cu    0.01198    0.00629    0.01696
  9 Cu    0.00115    0.00964    0.00804
 10 Cu   -0.01670    0.01388    0.03951
 11 Cu    0.00579    0.00187    0.00806
 12 Cu    0.00951   -0.00017   -0.03243
 13 Cu    0.00147   -0.00943   -0.00818
 14 Cu   -0.01572   -0.00398   -0.02692
 15 Cu   -0.00112    0.02418   -0.02949
 16 Cu    0.07990    0.03107    0.02681
 17 Cu   -0.00192    0.02592   -0.02705
 18 Cu   -0.03294    0.05486    0.06910
 19 Cu   -0.02850   -0.01038   -0.02154
 20 Cu   -0.00919    0.10737    0.14938
 21 Cu    0.12974    0.00144   -0.06514
 22 Cu   -0.03746    0.01249   -0.00321
 23 Cu   -0.14319    0.05998   -0.03902
 24 Cu   -0.02014   -0.09197   -0.11573
 25 Cu   -0.01318    0.06575   -0.02880
 26 Cu    0.01479   -0.00457    0.01454
 27 Cu    0.00129    0.00838   -0.00270
 28 Cu   -0.00737   -0.00663    0.04092
 29 Cu    0.00491   -0.00510   -0.02227
 30 Cu   -0.00369   -0.00987   -0.02325
 31 Cu   -0.01217   -0.01068   -0.01269
 32 Cu   -0.02783   -0.06369   -0.03469
 33 Cu    0.02579   -0.06145   -0.05191
 34 Cu   -0.00105   -0.01334    0.09063
 35 Cu   -0.02075   -0.08724   -0.17011
 36 Cu   -0.00670    0.05586    0.13153
 37 Cu    0.05183   -0.04796    0.02185
 38 Cu   -0.08556   -0.03404   -0.03480
 39 Cu    0.00819    0.06232   -0.00864
 40 Cu    0.01217    0.00732    0.00932
 41 Cu    0.00160   -0.02567    0.03364
 42 Cu   -0.00428    0.00447    0.02217
 43 Cu    0.00059   -0.00685   -0.00800
 44 Cu   -0.10127    0.03883    0.02976
 45 Cu    0.00750    0.00266   -0.01870
 46 Cu    0.01413   -0.00478    0.02712
 47 Cu   -0.00510    0.14324   -0.04096
 48 Cu    0.00453   -0.01527    0.00428
 49 Cu   -0.01677   -0.01263    0.07080
 50 Cu    0.01317    0.00558    0.02769
 51 Cu    0.01453   -0.01403   -0.02745
 52 Cu   -0.00429    0.02323   -0.01986
 53 Cu    0.00644    0.05116    0.01849
 54 Cl   -0.15280   -0.03048    0.19005
 55 Cl    0.22582   -0.15308   -0.16328
 56 Cl    0.03319   -0.20914    0.06677
 57 Cl    0.09564    0.12518   -0.03998
 58 Cl    0.06709    0.10690    0.12210
 59 Cl   -0.08282   -0.00487   -0.10588
 60 Cl    0.04413   -0.22369    0.04744
 61 Cl   -0.06887    0.26026   -0.05298
 62 Cl    0.02632    0.06003   -0.00625
 63 Cl    0.12989   -0.05252   -0.05950
 64 Cl    0.06158    0.14804    0.44496
 65 Cl   -0.37207   -0.02744   -0.32439

System changes: positions 

Initializing position-dependent things.

Density initialized from wave functions
                                              
                                              
                                              
                                              
                                              
                Cl     Cl    Cl               
                      ClCu    Cu     Cu       
               Cl          Cl                 
                   Cu     Cu    Cu            
               Cu   CCu    CCu   Cu           
                                              
                Cu    Cu     Cu               
           Cu   CCu    CCu   Cu               
                                              
            Cu    Cu    CCu   Cu     Cu       
       Cu     Cu   CCu    Cu    Cu            
                                              
               Cu   CCu    CCu   Cu           
               Cu     Cu    Cu                
                                              
           Cu   CCu    CCu   Cu               
            Cu    Cu     Cu                   
                 Cl          Cl               
       Cu     Cu    Cul                       
              Cl     Cl     Cl                
                                              
                                              
                                              
                                              
                                              

Positions:
   0 Cu     2.865654   -0.070324    9.892757    ( 0.0000,  0.0000,  0.0000)
   1 Cu     4.153630    2.290196   10.043379    ( 0.0000,  0.0000,  0.0000)
   2 Cu     0.262252   -0.025190    9.955400    ( 0.0000,  0.0000,  0.0000)
   3 Cu     1.574768    2.248082    9.985236    ( 0.0000,  0.0000,  0.0000)
   4 Cu     2.871661    3.005673   12.121883    ( 0.0000,  0.0000,  0.0000)
   5 Cu     1.578077    0.716393   12.057214    ( 0.0000,  0.0000,  0.0000)
   6 Cu     5.494227    3.012785   12.179584    ( 0.0000,  0.0000,  0.0000)
   7 Cu     4.184781    0.732461   12.138673    ( 0.0000,  0.0000,  0.0000)
   8 Cu     5.509176    1.505064   14.279101    ( 0.0000,  0.0000,  0.0000)
   9 Cu     6.828002    3.776088   14.294377    ( 0.0000,  0.0000,  0.0000)
  10 Cu     2.885881    1.503388   14.231076    ( 0.0000,  0.0000,  0.0000)
  11 Cu     4.188036    3.778671   14.284305    ( 0.0000,  0.0000,  0.0000)
  12 Cu     2.909010    0.003024   16.385132    ( 0.0000,  0.0000,  0.0000)
  13 Cu     4.201333    2.266018   16.385098    ( 0.0000,  0.0000,  0.0000)
  14 Cu     0.286090   -0.000082   16.386703    ( 0.0000,  0.0000,  0.0000)
  15 Cu     1.598069    2.272908   16.384718    ( 0.0000,  0.0000,  0.0000)
  16 Cu     2.919941    3.050234   18.527581    ( 0.0000,  0.0000,  0.0000)
  17 Cu     1.608595    0.780622   18.469401    ( 0.0000,  0.0000,  0.0000)
  18 Cu     5.539220    3.025748   18.500484    ( 0.0000,  0.0000,  0.0000)
  19 Cu     4.229360    0.740482   18.506849    ( 0.0000,  0.0000,  0.0000)
  20 Cu     5.534968    1.491355   20.541425    ( 0.0000,  0.0000,  0.0000)
  21 Cu     6.844826    3.742936   20.669958    ( 0.0000,  0.0000,  0.0000)
  22 Cu     2.930588    1.584072   20.539420    ( 0.0000,  0.0000,  0.0000)
  23 Cu     4.249390    3.763347   20.641498    ( 0.0000,  0.0000,  0.0000)
  24 Cu     5.510857    4.514773   10.083439    ( 0.0000,  0.0000,  0.0000)
  25 Cu     2.883374    4.477554   10.054097    ( 0.0000,  0.0000,  0.0000)
  26 Cu     4.196645    5.293142   12.147617    ( 0.0000,  0.0000,  0.0000)
  27 Cu     6.803037    5.283741   12.148920    ( 0.0000,  0.0000,  0.0000)
  28 Cu     8.124751    6.032425   14.277871    ( 0.0000,  0.0000,  0.0000)
  29 Cu     5.514540    6.040924   14.274997    ( 0.0000,  0.0000,  0.0000)
  30 Cu     5.520218    4.535751   16.405473    ( 0.0000,  0.0000,  0.0000)
  31 Cu     2.892492    4.545907   16.435860    ( 0.0000,  0.0000,  0.0000)
  32 Cu     4.228121    5.303502   18.543841    ( 0.0000,  0.0000,  0.0000)
  33 Cu     6.844688    5.301774   18.554418    ( 0.0000,  0.0000,  0.0000)
  34 Cu     8.160413    6.090694   20.795581    ( 0.0000,  0.0000,  0.0000)
  35 Cu     5.547170    6.198173   20.573223    ( 0.0000,  0.0000,  0.0000)
  36 Cu     5.487873   -0.157111   10.130812    ( 0.0000,  0.0000,  0.0000)
  37 Cu     6.800066    2.246078   10.082208    ( 0.0000,  0.0000,  0.0000)
  38 Cu     8.118664    2.986535   12.163400    ( 0.0000,  0.0000,  0.0000)
  39 Cu     6.811285    0.728196   12.166057    ( 0.0000,  0.0000,  0.0000)
  40 Cu     8.142553    1.494458   14.258547    ( 0.0000,  0.0000,  0.0000)
  41 Cu     9.437907    3.768607   14.293420    ( 0.0000,  0.0000,  0.0000)
  42 Cu     5.518114   -0.006888   16.391579    ( 0.0000,  0.0000,  0.0000)
  43 Cu     6.840879    2.262211   16.391482    ( 0.0000,  0.0000,  0.0000)
  44 Cu     8.153201    3.039109   18.545990    ( 0.0000,  0.0000,  0.0000)
  45 Cu     6.842923    0.732253   18.505534    ( 0.0000,  0.0000,  0.0000)
  46 Cu     8.146492    1.564381   20.573966    ( 0.0000,  0.0000,  0.0000)
  47 Cu     9.455804    3.768248   20.679900    ( 0.0000,  0.0000,  0.0000)
  48 Cu     8.120748    4.444640   10.129038    ( 0.0000,  0.0000,  0.0000)
  49 Cu     9.433664    5.249259   12.199950    ( 0.0000,  0.0000,  0.0000)
  50 Cu    10.750297    6.030251   14.291092    ( 0.0000,  0.0000,  0.0000)
  51 Cu     8.144590    4.542243   16.443681    ( 0.0000,  0.0000,  0.0000)
  52 Cu     9.455884    5.320298   18.631282    ( 0.0000,  0.0000,  0.0000)
  53 Cu    10.768008    6.052953   20.752069    ( 0.0000,  0.0000,  0.0000)
  54 Cl     5.757038    2.053892   22.720215    ( 0.0000,  0.0000,  0.0000)
  55 Cl     4.983050    3.950355    7.928143    ( 0.0000,  0.0000,  0.0000)
  56 Cl     8.196453    4.360922   22.692784    ( 0.0000,  0.0000,  0.0000)
  57 Cl     2.726127    1.506158    7.977975    ( 0.0000,  0.0000,  0.0000)
  58 Cl     7.718199    5.343004    8.118910    ( 0.0000,  0.0000,  0.0000)
  59 Cl     3.177927    0.656531   22.557000    ( 0.0000,  0.0000,  0.0000)
  60 Cl     2.986187    4.029517   22.664162    ( 0.0000,  0.0000,  0.0000)
  61 Cl     7.979586    2.193768    8.034989    ( 0.0000,  0.0000,  0.0000)
  62 Cl     3.036866    5.775911    8.090180    ( 0.0000,  0.0000,  0.0000)
  63 Cl     7.939743    0.415116   22.554442    ( 0.0000,  0.0000,  0.0000)
  64 Cl     5.577073    4.873794   22.443085    ( 0.0000,  0.0000,  0.0000)
  65 Cl     5.388065    1.213267    8.295909    ( 0.0000,  0.0000,  0.0000)

Unit cell:
           periodic     x           y           z      points  spacing
  1. axis:    yes    7.851007    0.000000    0.000000    45     0.1511
  2. axis:    yes    3.925503    6.799171    0.000000    45     0.1511
  3. axis:    yes    0.000000    0.000000   30.683867   175     0.1753

  Lengths:   7.851007   7.851006  30.683867
  Angles:   90.000000  90.000000  60.000001

Effective grid spacing dv^(1/3) = 0.1666

     iter     time        total  log10-change:
                         energy  eigst   dens
iter:   1 08:45:22 -4524.526938  -2.04
iter:   2 08:46:13 -4522.805791  -2.14  -1.99
iter:   3 08:47:02 -4521.621001  -3.16  -2.07
iter:   4 08:47:52 -4521.636892  -4.10  -2.68
iter:   5 08:48:42 -4521.584059c -4.34  -2.61
iter:   6 08:49:31 -4521.541017c -3.76  -2.78
iter:   7 08:50:25 -4521.535279c -4.88  -3.06
iter:   8 08:51:14 -4521.537913c -5.00  -3.22
iter:   9 08:52:03 -4521.535435c -4.81  -3.23
iter:  10 08:52:57 -4521.533506c -5.75  -3.57
iter:  11 08:53:52 -4521.533905c -5.42  -3.59
iter:  12 08:54:41 -4521.532140c -6.24  -3.58
iter:  13 08:55:43 -4521.532248c -6.48  -3.87
iter:  14 08:56:38 -4521.532580c -6.29  -3.96
iter:  15 08:57:29 -4521.532128c -6.75  -4.07c
iter:  16 08:58:27 -4521.532384c -7.38  -4.26c
iter:  17 08:59:20 -4521.532209c -7.20  -4.29c
iter:  18 09:00:11 -4521.532279c -7.50c -4.31c

Converged after 18 iterations.

Dipole moment: (6.266851, -7.117906, 0.006832) |e|*Ang

Energy contributions relative to reference atoms: (reference = -2581817.792169)

Kinetic:       +558.574245
Potential:     -572.414803
External:        +0.000000
XC:            -4506.688942
Entropy (-ST):   -0.735943
Local:           -0.634808
--------------------------
Free energy:   -4521.900250
Extrapolated:  -4521.532279

Showing only first 2 kpts
 Kpt  Band  Eigenvalues  Occupancy
  0   337      0.66475    0.97410
  0   338      0.75013    0.57579
  0   339      0.79413    0.41319
  0   340      0.81148    0.35919

  1   337      0.43154    1.81447
  1   338      0.48719    1.69723
  1   339      0.51642    1.61427
  1   340      0.58953    1.33656


Fermi level: 0.65957

No gap

Forces in eV/Ang:
  0 Cu   -0.01943    0.01653   -0.06267
  1 Cu    0.06607   -0.11182   -0.08716
  2 Cu    0.01955   -0.04913    0.00200
  3 Cu   -0.01552   -0.06930   -0.10167
  4 Cu    0.01313   -0.00012    0.01891
  5 Cu    0.00640   -0.01637    0.00968
  6 Cu    0.02576   -0.02308   -0.06515
  7 Cu    0.01004   -0.00337   -0.00497
  8 Cu    0.00597    0.00597    0.00304
  9 Cu   -0.00384   -0.00311   -0.02839
 10 Cu    0.00465   -0.00136    0.02603
 11 Cu    0.02523   -0.00983   -0.02759
 12 Cu   -0.00879   -0.01078   -0.00108
 13 Cu    0.00982    0.00393    0.02853
 14 Cu    0.00358   -0.01071    0.00347
 15 Cu   -0.00508    0.01722    0.01824
 16 Cu   -0.01068    0.00866   -0.01093
 17 Cu   -0.00575    0.00101    0.00423
 18 Cu   -0.02177    0.02541    0.07489
 19 Cu   -0.01003    0.00042    0.02733
 20 Cu    0.00444    0.05574    0.18085
 21 Cu   -0.00794    0.09668    0.05630
 22 Cu   -0.07953   -0.01566   -0.04803
 23 Cu   -0.00960    0.09957    0.03096
 24 Cu   -0.02361   -0.03334   -0.14187
 25 Cu   -0.01248    0.02252   -0.04405
 26 Cu    0.00729   -0.02533   -0.01467
 27 Cu   -0.00141    0.01050   -0.03558
 28 Cu    0.00201    0.00659    0.01397
 29 Cu    0.00286   -0.00314   -0.01930
 30 Cu   -0.00187   -0.00959   -0.01335
 31 Cu    0.00107   -0.00972   -0.00063
 32 Cu   -0.00082    0.00076   -0.01378
 33 Cu   -0.00729    0.00047   -0.00826
 34 Cu    0.00578    0.00929    0.06758
 35 Cu    0.00923   -0.19224    0.06515
 36 Cu   -0.03701    0.19369   -0.07909
 37 Cu   -0.02463   -0.08314   -0.05427
 38 Cu    0.00844   -0.01123   -0.00780
 39 Cu   -0.00786   -0.00399   -0.01137
 40 Cu   -0.00490    0.00398   -0.01219
 41 Cu   -0.00651   -0.01432    0.00349
 42 Cu   -0.00072    0.00287    0.02114
 43 Cu   -0.01344    0.00957    0.02902
 44 Cu   -0.01086    0.00180   -0.01126
 45 Cu   -0.00844    0.02111    0.02719
 46 Cu    0.05031   -0.03658    0.02011
 47 Cu    0.01319    0.11442    0.06687
 48 Cu    0.04690   -0.01390    0.03227
 49 Cu   -0.00673   -0.00100    0.00772
 50 Cu   -0.00017    0.01531   -0.00951
 51 Cu    0.00009   -0.01343   -0.00848
 52 Cu   -0.00419    0.02646   -0.01762
 53 Cu   -0.02176    0.05062    0.00645
 54 Cl   -0.09445    0.07644    0.09446
 55 Cl    0.14380   -0.10874   -0.08672
 56 Cl   -0.03901   -0.15994   -0.00952
 57 Cl   -0.07822    0.17956   -0.01815
 58 Cl    0.01232    0.11132    0.09403
 59 Cl    0.02601   -0.04881   -0.07338
 60 Cl    0.07254   -0.14353   -0.01454
 61 Cl   -0.06483    0.15998    0.05059
 62 Cl    0.12829    0.03054    0.07128
 63 Cl   -0.06162    0.02130   -0.07239
 64 Cl    0.11885   -0.09726    0.16534
 65 Cl   -0.11581   -0.06385   -0.10346

System changes: positions 

Initializing position-dependent things.

Density initialized from wave functions
                                              
                                              
                                              
                                              
                                              
                Cl     Cl    Cl               
                      ClCu    Cu     Cu       
               Cl          Cl                 
                   Cu     Cu    Cu            
               Cu   CCu    CCu   Cu           
                                              
                Cu    Cu     Cu               
           Cu   CCu    CCu   Cu               
                                              
            Cu    Cu    CCu   Cu     Cu       
       Cu     Cu   CCu    Cu    Cu            
                                              
               Cu   CCu    CCu   Cu           
               Cu     Cu    Cu                
                                              
           Cu   CCu    CCu   Cu               
            Cu    Cu     Cu                   
                  Cl         Cl               
       Cu     Cu    Cul                       
              Cl     Cl     Cl                
                                              
                                              
                                              
                                              
                                              

Positions:
   0 Cu     2.861546   -0.061040    9.871674    ( 0.0000,  0.0000,  0.0000)
   1 Cu     4.158524    2.274386   10.041038    ( 0.0000,  0.0000,  0.0000)
   2 Cu     0.262069   -0.041173    9.957703    ( 0.0000,  0.0000,  0.0000)
   3 Cu     1.577985    2.228896    9.983139    ( 0.0000,  0.0000,  0.0000)
   4 Cu     2.878861    3.004305   12.131720    ( 0.0000,  0.0000,  0.0000)
   5 Cu     1.579540    0.711503   12.059987    ( 0.0000,  0.0000,  0.0000)
   6 Cu     5.505812    3.007964   12.166120    ( 0.0000,  0.0000,  0.0000)
   7 Cu     4.182313    0.734122   12.150839    ( 0.0000,  0.0000,  0.0000)
   8 Cu     5.511492    1.506692   14.281656    ( 0.0000,  0.0000,  0.0000)
   9 Cu     6.828049    3.777115   14.292862    ( 0.0000,  0.0000,  0.0000)
  10 Cu     2.884318    1.504206   14.240075    ( 0.0000,  0.0000,  0.0000)
  11 Cu     4.192099    3.777820   14.282988    ( 0.0000,  0.0000,  0.0000)
  12 Cu     2.908209    0.002123   16.380496    ( 0.0000,  0.0000,  0.0000)
  13 Cu     4.202708    2.265313   16.386428    ( 0.0000,  0.0000,  0.0000)
  14 Cu     0.285081   -0.001534   16.383104    ( 0.0000,  0.0000,  0.0000)
  15 Cu     1.597326    2.276888   16.385380    ( 0.0000,  0.0000,  0.0000)
  16 Cu     2.925137    3.052835   18.526848    ( 0.0000,  0.0000,  0.0000)
  17 Cu     1.606921    0.787029   18.460730    ( 0.0000,  0.0000,  0.0000)
  18 Cu     5.532672    3.031643   18.515355    ( 0.0000,  0.0000,  0.0000)
  19 Cu     4.226365    0.740612   18.510943    ( 0.0000,  0.0000,  0.0000)
  20 Cu     5.532397    1.513852   20.574010    ( 0.0000,  0.0000,  0.0000)
  21 Cu     6.847874    3.758730   20.680682    ( 0.0000,  0.0000,  0.0000)
  22 Cu     2.918679    1.589214   20.529428    ( 0.0000,  0.0000,  0.0000)
  23 Cu     4.237889    3.787896   20.653403    ( 0.0000,  0.0000,  0.0000)
  24 Cu     5.507416    4.497144   10.054021    ( 0.0000,  0.0000,  0.0000)
  25 Cu     2.880223    4.481186   10.052685    ( 0.0000,  0.0000,  0.0000)
  26 Cu     4.199551    5.287915   12.146559    ( 0.0000,  0.0000,  0.0000)
  27 Cu     6.802473    5.285535   12.141664    ( 0.0000,  0.0000,  0.0000)
  28 Cu     8.124488    6.032096   14.285046    ( 0.0000,  0.0000,  0.0000)
  29 Cu     5.515561    6.040262   14.270104    ( 0.0000,  0.0000,  0.0000)
  30 Cu     5.519509    4.533077   16.400409    ( 0.0000,  0.0000,  0.0000)
  31 Cu     2.890752    4.543539   16.433220    ( 0.0000,  0.0000,  0.0000)
  32 Cu     4.222691    5.297408   18.532610    ( 0.0000,  0.0000,  0.0000)
  33 Cu     6.848509    5.295356   18.541045    ( 0.0000,  0.0000,  0.0000)
  34 Cu     8.160937    6.092360   20.814665    ( 0.0000,  0.0000,  0.0000)
  35 Cu     5.545662    6.155174   20.554276    ( 0.0000,  0.0000,  0.0000)
  36 Cu     5.486615   -0.125502   10.140125    ( 0.0000,  0.0000,  0.0000)
  37 Cu     6.804531    2.224593   10.063248    ( 0.0000,  0.0000,  0.0000)
  38 Cu     8.112146    2.982653   12.160391    ( 0.0000,  0.0000,  0.0000)
  39 Cu     6.813544    0.733115   12.168087    ( 0.0000,  0.0000,  0.0000)
  40 Cu     8.143846    1.495801   14.258748    ( 0.0000,  0.0000,  0.0000)
  41 Cu     9.437014    3.764571   14.297025    ( 0.0000,  0.0000,  0.0000)
  42 Cu     5.517392   -0.006441   16.396290    ( 0.0000,  0.0000,  0.0000)
  43 Cu     6.839334    2.262542   16.393140    ( 0.0000,  0.0000,  0.0000)
  44 Cu     8.142090    3.041602   18.545936    ( 0.0000,  0.0000,  0.0000)
  45 Cu     6.840928    0.736782   18.509348    ( 0.0000,  0.0000,  0.0000)
  46 Cu     8.152234    1.565073   20.576929    ( 0.0000,  0.0000,  0.0000)
  47 Cu     9.455988    3.797260   20.673307    ( 0.0000,  0.0000,  0.0000)
  48 Cu     8.125840    4.437714   10.137073    ( 0.0000,  0.0000,  0.0000)
  49 Cu     9.431463    5.244674   12.213544    ( 0.0000,  0.0000,  0.0000)
  50 Cu    10.751921    6.032364   14.293816    ( 0.0000,  0.0000,  0.0000)
  51 Cu     8.146751    4.538979   16.438518    ( 0.0000,  0.0000,  0.0000)
  52 Cu     9.454624    5.326781   18.627008    ( 0.0000,  0.0000,  0.0000)
  53 Cu    10.766444    6.068937   20.753341    ( 0.0000,  0.0000,  0.0000)
  54 Cl     5.733121    2.034675   22.771888    ( 0.0000,  0.0000,  0.0000)
  55 Cl     5.023731    3.947393    7.880928    ( 0.0000,  0.0000,  0.0000)
  56 Cl     8.199073    4.306029   22.708945    ( 0.0000,  0.0000,  0.0000)
  57 Cl     2.704032    1.550897    7.953003    ( 0.0000,  0.0000,  0.0000)
  58 Cl     7.726750    5.373487    8.144243    ( 0.0000,  0.0000,  0.0000)
  59 Cl     3.172134    0.650060   22.537718    ( 0.0000,  0.0000,  0.0000)
  60 Cl     3.003220    3.975126   22.675770    ( 0.0000,  0.0000,  0.0000)
  61 Cl     7.959275    2.252871    8.030725    ( 0.0000,  0.0000,  0.0000)
  62 Cl     3.065646    5.786272    8.091284    ( 0.0000,  0.0000,  0.0000)
  63 Cl     7.938889    0.418441   22.543461    ( 0.0000,  0.0000,  0.0000)
  64 Cl     5.601004    4.896255   22.522539    ( 0.0000,  0.0000,  0.0000)
  65 Cl     5.355513    1.167920    8.228139    ( 0.0000,  0.0000,  0.0000)

Unit cell:
           periodic     x           y           z      points  spacing
  1. axis:    yes    7.851007    0.000000    0.000000    45     0.1511
  2. axis:    yes    3.925503    6.799171    0.000000    45     0.1511
  3. axis:    yes    0.000000    0.000000   30.683867   175     0.1753

  Lengths:   7.851007   7.851006  30.683867
  Angles:   90.000000  90.000000  60.000001

Effective grid spacing dv^(1/3) = 0.1666

     iter     time        total  log10-change:
                         energy  eigst   dens
iter:   1 09:01:30 -4522.965154  -2.05
iter:   2 09:02:20 -4522.446360  -2.43  -2.13
iter:   3 09:03:11 -4521.722886  -3.28  -2.17
iter:   4 09:04:01 -4521.792767  -3.99  -2.65
iter:   5 09:04:56 -4521.667685c -4.28  -2.58
iter:   6 09:05:52 -4521.641924c -3.77  -2.82
iter:   7 09:06:41 -4521.642632c -4.63  -3.10
iter:   8 09:07:30 -4521.647471c -4.79  -3.20
iter:   9 09:08:24 -4521.638361c -5.28  -3.21
iter:  10 09:09:16 -4521.637475c -6.09  -3.52
iter:  11 09:10:06 -4521.636915c -5.50  -3.59
iter:  12 09:10:56 -4521.636617c -5.31  -3.70
iter:  13 09:11:46 -4521.636929c -6.41  -3.81
iter:  14 09:12:36 -4521.636656c -6.33  -3.93
iter:  15 09:13:27 -4521.636583c -6.40  -4.10c
iter:  16 09:14:17 -4521.636470c -6.86  -4.24c
iter:  17 09:15:09 -4521.636479c -7.20  -4.35c
iter:  18 09:15:59 -4521.636570c -7.40  -4.40c
iter:  19 09:16:48 -4521.636518c -7.24  -4.53c
iter:  20 09:17:37 -4521.636532c -7.49c -4.64c

Converged after 20 iterations.

Dipole moment: (6.110947, -7.781021, 0.003670) |e|*Ang

Energy contributions relative to reference atoms: (reference = -2581817.792169)

Kinetic:       +552.696616
Potential:     -567.837701
External:        +0.000000
XC:            -4505.514706
Entropy (-ST):   -0.735526
Local:           -0.612979
--------------------------
Free energy:   -4522.004295
Extrapolated:  -4521.636532

Showing only first 2 kpts
 Kpt  Band  Eigenvalues  Occupancy
  0   337      0.64930    1.01103
  0   338      0.74051    0.58219
  0   339      0.78445    0.41851
  0   340      0.80007    0.36914

  1   337      0.40586    1.84206
  1   338      0.46992    1.72013
  1   339      0.49974    1.64039
  1   340      0.58699    1.31181


Fermi level: 0.65150

No gap

Forces in eV/Ang:
  0 Cu   -0.04495   -0.01714    0.01614
  1 Cu    0.08606   -0.08448   -0.14230
  2 Cu    0.04007   -0.01640    0.04568
  3 Cu   -0.01744   -0.00461   -0.08856
  4 Cu   -0.01918    0.00189   -0.05534
  5 Cu    0.00755    0.00973   -0.01270
  6 Cu   -0.01776   -0.00006   -0.05997
  7 Cu    0.01311   -0.01547   -0.02688
  8 Cu    0.00013    0.00668   -0.00069
  9 Cu   -0.00336   -0.00895   -0.04967
 10 Cu    0.01683   -0.00557    0.00734
 11 Cu    0.01977   -0.01397   -0.03875
 12 Cu   -0.01154   -0.00894    0.02989
 13 Cu    0.01110    0.00707    0.04676
 14 Cu    0.00357    0.00044    0.02061
 15 Cu   -0.00916   -0.00463    0.02495
 16 Cu   -0.06798    0.01110   -0.01834
 17 Cu   -0.01560   -0.05129    0.05046
 18 Cu   -0.00335   -0.00410    0.07474
 19 Cu    0.02222    0.02033    0.06147
 20 Cu   -0.00334    0.03533    0.14324
 21 Cu   -0.06113    0.08121    0.07900
 22 Cu   -0.07232   -0.02224   -0.03860
 23 Cu    0.05116    0.05598    0.04133
 24 Cu    0.00100   -0.02149   -0.11507
 25 Cu   -0.02690   -0.02367   -0.01289
 26 Cu    0.00939   -0.03976   -0.03819
 27 Cu   -0.01470   -0.00568   -0.04870
 28 Cu    0.00528    0.00805   -0.01545
 29 Cu   -0.00012   -0.00251   -0.00956
 30 Cu    0.00131   -0.01177   -0.00312
 31 Cu    0.01114   -0.00018   -0.00991
 32 Cu    0.00957    0.05083    0.00762
 33 Cu   -0.02173    0.04119    0.02212
 34 Cu    0.01762    0.03676    0.01127
 35 Cu    0.01751   -0.13005    0.19342
 36 Cu   -0.05203    0.11550   -0.09775
 37 Cu   -0.06438   -0.04241   -0.04360
 38 Cu    0.07080   -0.01238    0.00096
 39 Cu   -0.01042   -0.05186   -0.01633
 40 Cu   -0.01261   -0.00120   -0.00512
 41 Cu    0.00335    0.00101   -0.01441
 42 Cu    0.00359    0.00334    0.01361
 43 Cu   -0.01825    0.01228    0.03999
 44 Cu    0.04506   -0.01148    0.01067
 45 Cu   -0.03040    0.04363    0.05925
 46 Cu    0.06290    0.00522   -0.03721
 47 Cu    0.01249    0.03922    0.10353
 48 Cu    0.05932    0.00229    0.02545
 49 Cu    0.01092    0.03931   -0.07982
 50 Cu   -0.00440    0.00205   -0.02552
 51 Cu   -0.01326   -0.00226    0.00306
 52 Cu   -0.00800    0.01091   -0.00233
 53 Cu   -0.03348    0.03437   -0.02909
 54 Cl   -0.05740    0.11694    0.06042
 55 Cl    0.08477   -0.10874   -0.03297
 56 Cl    0.00310   -0.12260   -0.05172
 57 Cl   -0.01450    0.15746    0.02017
 58 Cl   -0.04536    0.04462    0.05797
 59 Cl    0.08460   -0.07857   -0.07910
 60 Cl    0.06344   -0.05519   -0.05810
 61 Cl   -0.12044    0.11115    0.07215
 62 Cl    0.18400   -0.02179    0.08658
 63 Cl   -0.11379   -0.02831   -0.06780
 64 Cl    0.01004   -0.17233    0.04048
 65 Cl   -0.03599    0.09629   -0.03417

System changes: positions 

Initializing position-dependent things.

Density initialized from wave functions
                                              
                                              
                                              
                                              
                                              
                Cl     Cl    Cl               
                      ClCu    Cu     Cu       
               Cl         Cl                  
                   Cu     Cu    Cu            
               Cu   CCu    CCu   Cu           
                                              
                Cu    Cu     Cu               
           Cu   CCu    CCu   Cu               
                                              
            Cu    Cu    CCu   Cu     Cu       
       Cu     Cu   CCu    Cu    Cu            
                                              
               Cu   CCu    CCu   Cu           
               Cu     Cu    Cu                
                                              
           Cu   CCu    CCu   Cu               
            Cu    Cu     Cu                   
                  Cl         Cl               
       Cu     Cu    Cul                       
              Cl    Cl      Cl                
                                              
                                              
                                              
                                              
                                              

Positions:
   0 Cu     2.850837   -0.054695    9.856233    ( 0.0000,  0.0000,  0.0000)
   1 Cu     4.166558    2.253399   10.027299    ( 0.0000,  0.0000,  0.0000)
   2 Cu     0.267805   -0.057752    9.968359    ( 0.0000,  0.0000,  0.0000)
   3 Cu     1.579968    2.211873    9.972766    ( 0.0000,  0.0000,  0.0000)
   4 Cu     2.883112    3.002600   12.131114    ( 0.0000,  0.0000,  0.0000)
   5 Cu     1.581870    0.708942   12.060157    ( 0.0000,  0.0000,  0.0000)
   6 Cu     5.514169    3.003832   12.144911    ( 0.0000,  0.0000,  0.0000)
   7 Cu     4.181385    0.733709   12.158922    ( 0.0000,  0.0000,  0.0000)
   8 Cu     5.513608    1.509184   14.284162    ( 0.0000,  0.0000,  0.0000)
   9 Cu     6.827762    3.776945   14.284754    ( 0.0000,  0.0000,  0.0000)
  10 Cu     2.885116    1.504388   14.249181    ( 0.0000,  0.0000,  0.0000)
  11 Cu     4.197956    3.775239   14.276932    ( 0.0000,  0.0000,  0.0000)
  12 Cu     2.906211    0.000387   16.380623    ( 0.0000,  0.0000,  0.0000)
  13 Cu     4.205390    2.265410   16.393831    ( 0.0000,  0.0000,  0.0000)
  14 Cu     0.284158   -0.002243   16.382424    ( 0.0000,  0.0000,  0.0000)
  15 Cu     1.595318    2.279281   16.388443    ( 0.0000,  0.0000,  0.0000)
  16 Cu     2.921102    3.057516   18.525075    ( 0.0000,  0.0000,  0.0000)
  17 Cu     1.602921    0.784770   18.460439    ( 0.0000,  0.0000,  0.0000)
  18 Cu     5.526450    3.036239   18.539906    ( 0.0000,  0.0000,  0.0000)
  19 Cu     4.227499    0.744118   18.523644    ( 0.0000,  0.0000,  0.0000)
  20 Cu     5.528649    1.539084   20.619805    ( 0.0000,  0.0000,  0.0000)
  21 Cu     6.848964    3.779603   20.692769    ( 0.0000,  0.0000,  0.0000)
  22 Cu     2.898918    1.592085   20.515291    ( 0.0000,  0.0000,  0.0000)
  23 Cu     4.229065    3.814287   20.663336    ( 0.0000,  0.0000,  0.0000)
  24 Cu     5.505716    4.477554   10.013686    ( 0.0000,  0.0000,  0.0000)
  25 Cu     2.872906    4.479892   10.052052    ( 0.0000,  0.0000,  0.0000)
  26 Cu     4.203899    5.277439   12.139953    ( 0.0000,  0.0000,  0.0000)
  27 Cu     6.799405    5.285723   12.128209    ( 0.0000,  0.0000,  0.0000)
  28 Cu     8.124855    6.032623   14.289232    ( 0.0000,  0.0000,  0.0000)
  29 Cu     5.516437    6.039277   14.264512    ( 0.0000,  0.0000,  0.0000)
  30 Cu     5.519096    4.528848   16.395347    ( 0.0000,  0.0000,  0.0000)
  31 Cu     2.890721    4.541658   16.428691    ( 0.0000,  0.0000,  0.0000)
  32 Cu     4.218546    5.298778   18.523559    ( 0.0000,  0.0000,  0.0000)
  33 Cu     6.849482    5.294783   18.531717    ( 0.0000,  0.0000,  0.0000)
  34 Cu     8.164489    6.099714   20.832021    ( 0.0000,  0.0000,  0.0000)
  35 Cu     5.546045    6.103956   20.561416    ( 0.0000,  0.0000,  0.0000)
  36 Cu     5.478723   -0.089663   10.141749    ( 0.0000,  0.0000,  0.0000)
  37 Cu     6.803603    2.202734   10.046554    ( 0.0000,  0.0000,  0.0000)
[...]
 33 Cu   -0.00097   -0.00962    0.00277
 34 Cu   -0.00957   -0.00218    0.00303
 35 Cu   -0.00419   -0.00150    0.00270
 36 Cu    0.00244    0.00886   -0.00414
 37 Cu    0.00794    0.00709   -0.00879
 38 Cu   -0.00272   -0.00400    0.00428
 39 Cu   -0.00428   -0.00758   -0.00234
 40 Cu    0.00789   -0.01108    0.00387
 41 Cu   -0.00506   -0.01021   -0.00056
 42 Cu   -0.00101    0.00130    0.00150
 43 Cu    0.00072    0.00486    0.00564
 44 Cu   -0.01741   -0.00941    0.01125
 45 Cu   -0.00059   -0.00602    0.00199
 46 Cu   -0.00819    0.01116   -0.00633
 47 Cu   -0.00558    0.00033   -0.00295
 48 Cu   -0.00244   -0.00239   -0.01202
 49 Cu    0.00030    0.00607   -0.00587
 50 Cu    0.00202   -0.00588    0.00309
 51 Cu    0.00530   -0.00547    0.00332
 52 Cu   -0.00030    0.00247   -0.00059
 53 Cu   -0.01913    0.00096    0.01217
 54 Cl    0.00784   -0.04836   -0.00052
 55 Cl    0.00500    0.01597   -0.00166
 56 Cl    0.00396   -0.01125   -0.00877
 57 Cl   -0.00466    0.00038    0.00899
 58 Cl   -0.00786    0.00017    0.01213
 59 Cl   -0.01023    0.01354   -0.02235
 60 Cl    0.00249   -0.00180   -0.00977
 61 Cl   -0.00405    0.01082   -0.01904
 62 Cl    0.00615    0.00639    0.01526
 63 Cl   -0.00565   -0.00848   -0.02631
 64 Cl   -0.00839    0.05264   -0.01170
 65 Cl    0.01865   -0.02903    0.02524

System changes: positions 

Initializing position-dependent things.

Density initialized from wave functions
                                              
                                              
                                              
                                              
                                              
                        Cl                    
                       Cl                     
                                              
                                              
                                              
                  Cl    Cu   Clu     Cu       
             Cl    CuCl   Cu    Cu            
                                              
               Cu   CCu    CCu   Cu           
                Cu    Cu     Cu               
                                              
           Cu   CuCu   CCu   Cu               
                                              
            Cu    Cu    CCu   Cu     Cu       
       Cu     Cu   CCu    Cu    Cu            
                                              
               Cu   CCu    CCu   Cu           
                Cu    Cu    Cu                
                                              
           Cu   CCu     Cu   Cu               
            Cu    Cu                          
                  Cl     Cu Cl                
       Cu     Cu                              
                     Cl       Cl              
                                              
                       Cl                     
                   Cu                         
                      Cu                      
                     Cl                       
                                              
                                              
                                              
                                              

Positions:
   0 Cu     2.870313    0.085497   10.225477    ( 0.0000,  0.0000,  0.0000)
   1 Cu     4.142319    2.352287   10.264076    ( 0.0000,  0.0000,  0.0000)
   2 Cu     0.254099    0.072658   10.153201    ( 0.0000,  0.0000,  0.0000)
   3 Cu     1.569066    2.325794   10.228402    ( 0.0000,  0.0000,  0.0000)
   4 Cu     2.852264    3.115906   12.286849    ( 0.0000,  0.0000,  0.0000)
   5 Cu     1.535067    0.818576   12.265567    ( 0.0000,  0.0000,  0.0000)
   6 Cu     5.489198    3.112580   12.256419    ( 0.0000,  0.0000,  0.0000)
   7 Cu     4.157567    0.832130   12.299961    ( 0.0000,  0.0000,  0.0000)
   8 Cu     5.466252    1.587848   14.406932    ( 0.0000,  0.0000,  0.0000)
   9 Cu     6.774248    3.863686   14.397783    ( 0.0000,  0.0000,  0.0000)
  10 Cu     2.840752    1.595936   14.428985    ( 0.0000,  0.0000,  0.0000)
  11 Cu     4.165517    3.859031   14.406423    ( 0.0000,  0.0000,  0.0000)
  12 Cu     2.852043    0.075415   16.564239    ( 0.0000,  0.0000,  0.0000)
  13 Cu     4.161751    2.340602   16.565965    ( 0.0000,  0.0000,  0.0000)
  14 Cu     0.232908    0.080193   16.526900    ( 0.0000,  0.0000,  0.0000)
  15 Cu     1.540171    2.343052   16.542112    ( 0.0000,  0.0000,  0.0000)
  16 Cu     2.855043    3.083004   18.689886    ( 0.0000,  0.0000,  0.0000)
  17 Cu     1.566985    0.850595   18.692650    ( 0.0000,  0.0000,  0.0000)
  18 Cu     5.502702    3.078953   18.693016    ( 0.0000,  0.0000,  0.0000)
  19 Cu     4.174345    0.832409   18.767891    ( 0.0000,  0.0000,  0.0000)
  20 Cu     5.507135    1.601679   20.931987    ( 0.0000,  0.0000,  0.0000)
  21 Cu     6.799096    3.860831   20.783300    ( 0.0000,  0.0000,  0.0000)
  22 Cu     2.858370    1.587405   20.940197    ( 0.0000,  0.0000,  0.0000)
  23 Cu     4.194293    3.887035   20.716744    ( 0.0000,  0.0000,  0.0000)
  24 Cu     5.617896    2.752233    4.996303    ( 0.0000,  0.0000,  0.0000)
  25 Cu     2.845912    4.596929   10.185140    ( 0.0000,  0.0000,  0.0000)
  26 Cu     4.165291    5.364664   12.260908    ( 0.0000,  0.0000,  0.0000)
  27 Cu     6.774093    5.352238   12.248904    ( 0.0000,  0.0000,  0.0000)
  28 Cu     8.085606    6.127748   14.409436    ( 0.0000,  0.0000,  0.0000)
  29 Cu     5.471144    6.122391   14.400760    ( 0.0000,  0.0000,  0.0000)
  30 Cu     5.471209    4.607213   16.550463    ( 0.0000,  0.0000,  0.0000)
  31 Cu     2.849286    4.612190   16.533042    ( 0.0000,  0.0000,  0.0000)
  32 Cu     4.172622    5.368653   18.654612    ( 0.0000,  0.0000,  0.0000)
  33 Cu     6.815830    5.361075   18.690407    ( 0.0000,  0.0000,  0.0000)
  34 Cu     8.117597    6.101982   20.944959    ( 0.0000,  0.0000,  0.0000)
  35 Cu     5.468424    6.109226   20.722587    ( 0.0000,  0.0000,  0.0000)
  36 Cu     4.883065    0.061843    6.926410    ( 0.0000,  0.0000,  0.0000)
  37 Cu     6.775119    2.352422   10.035464    ( 0.0000,  0.0000,  0.0000)
  38 Cu     8.052703    3.121516   12.221867    ( 0.0000,  0.0000,  0.0000)
  39 Cu     6.758408    0.848876   12.208625    ( 0.0000,  0.0000,  0.0000)
  40 Cu     8.088072    1.602107   14.378271    ( 0.0000,  0.0000,  0.0000)
  41 Cu     9.389649    3.854551   14.393357    ( 0.0000,  0.0000,  0.0000)
  42 Cu     5.465745    0.075772   16.566149    ( 0.0000,  0.0000,  0.0000)
  43 Cu     6.775990    2.341627   16.520527    ( 0.0000,  0.0000,  0.0000)
  44 Cu     8.098809    3.101236   18.649022    ( 0.0000,  0.0000,  0.0000)
  45 Cu     6.786030    0.853856   18.684881    ( 0.0000,  0.0000,  0.0000)
  46 Cu     8.109245    1.578842   20.775943    ( 0.0000,  0.0000,  0.0000)
  47 Cu     9.430821    3.854869   20.787060    ( 0.0000,  0.0000,  0.0000)
  48 Cu     8.078046    4.608116   10.072231    ( 0.0000,  0.0000,  0.0000)
  49 Cu     9.369803    5.379670   12.227158    ( 0.0000,  0.0000,  0.0000)
  50 Cu    10.691449    6.135448   14.377533    ( 0.0000,  0.0000,  0.0000)
  51 Cu     8.085176    4.611711   16.525490    ( 0.0000,  0.0000,  0.0000)
  52 Cu     9.385968    5.359366   18.696626    ( 0.0000,  0.0000,  0.0000)
  53 Cu    10.751685    6.103632   20.722326    ( 0.0000,  0.0000,  0.0000)
  54 Cl     6.017067    2.138563   26.035103    ( 0.0000,  0.0000,  0.0000)
  55 Cl     5.519365    4.860439    5.040981    ( 0.0000,  0.0000,  0.0000)
  56 Cl     8.111101    3.082875   22.646545    ( 0.0000,  0.0000,  0.0000)
  57 Cl     5.172514    2.344084    8.285785    ( 0.0000,  0.0000,  0.0000)
  58 Cl     7.213907    5.884851    8.212228    ( 0.0000,  0.0000,  0.0000)
  59 Cl     2.451099   -0.300453   22.756941    ( 0.0000,  0.0000,  0.0000)
  60 Cl     4.021900    2.871172   22.731142    ( 0.0000,  0.0000,  0.0000)
  61 Cl     8.660851    2.671187    8.151395    ( 0.0000,  0.0000,  0.0000)
  62 Cl     3.264396    5.834908    8.332060    ( 0.0000,  0.0000,  0.0000)
  63 Cl     5.981514   -0.099782   22.739109    ( 0.0000,  0.0000,  0.0000)
  64 Cl     6.124565    4.123346   25.710135    ( 0.0000,  0.0000,  0.0000)
  65 Cl     5.739122    0.576836    4.957761    ( 0.0000,  0.0000,  0.0000)

Unit cell:
           periodic     x           y           z      points  spacing
  1. axis:    yes    7.851007    0.000000    0.000000    45     0.1511
  2. axis:    yes    3.925503    6.799171    0.000000    45     0.1511
  3. axis:    yes    0.000000    0.000000   30.683867   175     0.1753

  Lengths:   7.851007   7.851006  30.683867
  Angles:   90.000000  90.000000  60.000001

Effective grid spacing dv^(1/3) = 0.1666

     iter     time        total  log10-change:
                         energy  eigst   dens
iter:   1 20:20:28 -4527.952455  -3.45
iter:   2 20:21:17 -4528.035390  -3.84  -2.90
iter:   3 20:22:05 -4527.941249c -4.83  -3.02
iter:   4 20:22:55 -4527.946842c -4.97  -3.36
iter:   5 20:23:45 -4527.914631c -4.84  -3.30
iter:   6 20:24:34 -4527.915893c -6.25  -3.22
iter:   7 20:25:24 -4527.928107c -5.53  -3.30
iter:   8 20:26:20 -4527.930612c -5.83  -3.78
iter:   9 20:27:25 -4527.931596c -6.08  -3.91
iter:  10 20:28:19 -4527.935064c -6.06  -3.95
iter:  11 20:29:08 -4527.931204c -6.13  -3.85
iter:  12 20:29:56 -4527.932267c -7.19  -4.36c
iter:  13 20:30:49 -4527.932020c -6.51  -4.45c
iter:  14 20:31:42 -4527.931867c -7.23  -4.54c
iter:  15 20:32:39 -4527.931560c -7.72c -4.67c

Converged after 15 iterations.

Dipole moment: (13.490224, 12.003517, 0.505419) |e|*Ang

Energy contributions relative to reference atoms: (reference = -2581817.792169)

Kinetic:       +497.125420
Potential:     -531.833692
External:        +0.000000
XC:            -4492.141445
Entropy (-ST):   -0.635662
Local:           -0.764011
--------------------------
Free energy:   -4528.249391
Extrapolated:  -4527.931560

Showing only first 2 kpts
 Kpt  Band  Eigenvalues  Occupancy
  0   337      0.61964    1.21072
  0   338      0.73465    0.65377
  0   339      0.77844    0.47726
  0   340      0.82398    0.33163

  1   337      0.38574    1.88171
  1   338      0.45062    1.78529
  1   339      0.47652    1.73036
  1   340      0.56928    1.43470


Fermi level: 0.66242

No gap

Forces in eV/Ang:
  0 Cu    0.00409   -0.00451    0.00797
  1 Cu    0.00593   -0.00652    0.01461
  2 Cu    0.00482    0.00303   -0.00255
  3 Cu    0.00132    0.00103   -0.00201
  4 Cu   -0.00527    0.00261    0.00286
  5 Cu    0.00237   -0.00164    0.00297
  6 Cu   -0.00094    0.00186    0.00315
  7 Cu   -0.00727    0.00222    0.00491
  8 Cu    0.00619    0.00295    0.00017
  9 Cu    0.00563   -0.00062   -0.00061
 10 Cu    0.00545    0.00483    0.00456
 11 Cu    0.00099   -0.00177   -0.00396
 12 Cu    0.00636    0.00419    0.00307
 13 Cu    0.00375    0.00327    0.00161
 14 Cu    0.00110   -0.00106   -0.00127
 15 Cu    0.00357    0.00272    0.00859
 16 Cu   -0.00454    0.00072   -0.00172
 17 Cu   -0.00422   -0.00222    0.00382
 18 Cu   -0.00350   -0.00179   -0.00178
 19 Cu   -0.00250   -0.00154   -0.00604
 20 Cu   -0.01040   -0.00200    0.00014
 21 Cu   -0.00457   -0.00741    0.00060
 22 Cu    0.00221    0.00066   -0.00285
 23 Cu   -0.00099   -0.00202    0.00141
 24 Cu    0.00269   -0.02002   -0.00328
 25 Cu   -0.00194   -0.00636   -0.00153
 26 Cu    0.00269    0.00524    0.00116
 27 Cu    0.00239   -0.00222    0.00361
 28 Cu    0.00459    0.00098   -0.00052
 29 Cu    0.00795    0.00033    0.00540
 30 Cu    0.00395    0.00401   -0.00418
 31 Cu    0.00043    0.00002   -0.00538
 32 Cu   -0.00466    0.00297    0.00514
 33 Cu    0.00194   -0.00113    0.00410
 34 Cu   -0.01537    0.00651    0.00149
 35 Cu   -0.00795    0.00431   -0.00638
 36 Cu   -0.00014    0.01268   -0.01076
 37 Cu   -0.00255    0.00574   -0.00948
 38 Cu   -0.00096   -0.00416    0.00776
 39 Cu    0.00261   -0.00522   -0.00351
 40 Cu    0.00655   -0.00627    0.00784
 41 Cu   -0.00191   -0.00285   -0.00496
 42 Cu    0.00358    0.00114   -0.00416
 43 Cu    0.00924    0.00160    0.00303
 44 Cu   -0.00756   -0.00188    0.00516
 45 Cu   -0.00402   -0.00270   -0.00172
 46 Cu   -0.01449   -0.00242   -0.00668
 47 Cu   -0.01385    0.00140   -0.00771
 48 Cu    0.00477   -0.00449   -0.00680
 49 Cu   -0.00401    0.00094   -0.00109
 50 Cu    0.00135   -0.00834    0.00041
 51 Cu    0.00822   -0.00410   -0.00051
 52 Cu    0.00091   -0.00013    0.00170
 53 Cu   -0.00437    0.00039   -0.00539
 54 Cl    0.00947    0.00809   -0.01520
 55 Cl   -0.00216    0.00182   -0.00142
 56 Cl    0.00562   -0.00606   -0.01629
 57 Cl    0.01223    0.00196   -0.00340
 58 Cl   -0.01003    0.00164   -0.00514
 59 Cl   -0.00804    0.01153   -0.00218
 60 Cl   -0.00096   -0.00477   -0.01074
 61 Cl   -0.00206    0.00040    0.01218
 62 Cl    0.00719    0.00544    0.00422
 63 Cl   -0.01190    0.00067    0.00689
 64 Cl   -0.01015   -0.00524    0.01132
 65 Cl    0.01953    0.00939    0.01830

Timing:                                      incl.     excl.
-------------------------------------------------------------------
Density initialized from wave functions:   639.000   638.995   0.5% |
 Symmetrize density:                         0.005     0.005   0.0% |
Forces:                                   2662.039  2662.039   2.0% ||
Hamiltonian:                               980.453     2.257   0.0% |
 Atomic:                                    42.687    11.792   0.0% |
  XC Correction:                            30.895    30.895   0.0% |
 Calculate atomic Hamiltonians:            261.133   261.133   0.2% |
 Communicate:                                2.722     2.722   0.0% |
 Initialize Hamiltonian:                     0.001     0.001   0.0% |
 Poisson:                                    0.660     0.660   0.0% |
 XC 3D grid:                               670.993    92.993   0.1% |
  VdW-DF integral:                         578.000    25.745   0.0% |
   Convolution:                             42.487    42.487   0.0% |
   FFT:                                     20.440    20.440   0.0% |
   gather:                                 196.675   196.675   0.1% |
   hmm1:                                    13.440    13.440   0.0% |
   hmm2:                                    30.855    30.855   0.0% |
   iFFT:                                    21.147    21.147   0.0% |
   potential:                              221.767     2.537   0.0% |
    collect:                                31.088    31.088   0.0% |
    p1:                                    101.863   101.863   0.1% |
    p2:                                     43.265    43.265   0.0% |
    sum:                                    43.013    43.013   0.0% |
   splines:                                  5.444     5.444   0.0% |
LCAO initialization:                       254.520     0.699   0.0% |
 LCAO eigensolver:                          14.657     0.002   0.0% |
  Blacs Orbital Layouts:                     1.586     0.001   0.0% |
   General diagonalize:                      1.561     1.561   0.0% |
   Redistribute coefs:                       0.019     0.019   0.0% |
   Send coefs to domains:                    0.004     0.004   0.0% |
  Calculate projections:                     0.005     0.005   0.0% |
  Distribute overlap matrix:                12.739     0.001   0.0% |
   Scalapack redistribute:                   0.018     0.018   0.0% |
   blocked summation:                       12.720    12.720   0.0% |
  Potential matrix:                          0.228     0.228   0.0% |
  SparseAtomicCorrection:                    0.011     0.011   0.0% |
  Sum over cells:                            0.086     0.086   0.0% |
 LCAO to grid:                             236.781   236.781   0.2% |
 Set positions (LCAO WFS):                   2.382     0.012   0.0% |
  Basic WFS set positions:                   0.002     0.002   0.0% |
  Basis functions set positions:             0.000     0.000   0.0% |
  P tci:                                     0.000     0.000   0.0% |
  ST tci:                                    0.410     0.410   0.0% |
  Scalapack redistribute:                    0.021     0.021   0.0% |
  blocked summation:                         1.789     1.789   0.0% |
  mktci:                                     0.147     0.147   0.0% |
PWDescriptor:                                0.861     0.861   0.0% |
Redistribute:                                0.246     0.246   0.0% |
SCF-cycle:                               129578.887  3461.402   2.6% ||
 Davidson:                               94732.778 21807.997  16.2% |-----|
  Apply H:                               10877.007 10704.886   7.9% |--|
   HMM T:                                  172.121   172.121   0.1% |
  Subspace diag:                         16891.690     0.515   0.0% |
   calc_h_matrix:                        13057.186  2364.155   1.8% ||
    Apply H:                             10693.032 10503.191   7.8% |--|
     HMM T:                                189.840   189.840   0.1% |
   diagonalize:                            449.903   449.903   0.3% |
   rotate_psi:                            3384.085  3384.085   2.5% ||
  calc. matrices:                        36083.528 14897.709  11.1% |---|
   Apply H:                              21185.820 20843.965  15.5% |-----|
    HMM T:                                 341.854   341.854   0.3% |
  diagonalize:                            3078.754  3078.754   2.3% ||
  rotate_psi:                             5993.802  5993.802   4.4% |-|
 Density:                                12011.487     0.114   0.0% |
  Atomic density matrices:                  43.170    43.170   0.0% |
  Mix:                                    5862.464  5862.464   4.3% |-|
  Multipole moments:                         2.354     2.354   0.0% |
  Pseudo density:                         6103.385  6103.284   4.5% |-|
   Symmetrize density:                       0.101     0.101   0.0% |
 Hamiltonian:                            18933.258    41.083   0.0% |
  Atomic:                                  829.836   257.578   0.2% |
   XC Correction:                          572.258   572.258   0.4% |
  Calculate atomic Hamiltonians:          4878.917  4878.917   3.6% ||
  Communicate:                              92.575    92.575   0.1% |
  Poisson:                                  11.759    11.759   0.0% |
  XC 3D grid:                            13079.088  1780.619   1.3% ||
   VdW-DF integral:                      11298.469   472.091   0.4% |
    Convolution:                           771.142   771.142   0.6% |
    FFT:                                   376.921   376.921   0.3% |
    gather:                               4273.021  4273.021   3.2% ||
    hmm1:                                  259.454   259.454   0.2% |
    hmm2:                                  567.619   567.619   0.4% |
    iFFT:                                  386.398   386.398   0.3% |
    potential:                            4191.798    47.774   0.0% |
     collect:                              607.752   607.752   0.5% |
     p1:                                  1886.101  1886.101   1.4% ||
     p2:                                   794.213   794.213   0.6% |
     sum:                                  855.958   855.958   0.6% |
    splines:                                 0.026     0.026   0.0% |
 Orthonormalize:                           439.963     0.049   0.0% |
  calc_s_matrix:                            60.470    60.470   0.0% |
  inverse-cholesky:                         12.816    12.816   0.0% |
  projections:                             275.429   275.429   0.2% |
  rotate_psi_s:                             91.199    91.199   0.1% |
Set symmetry:                                0.001     0.001   0.0% |
Other:                                     673.613   673.613   0.5% |
-------------------------------------------------------------------
Total:                                             134789.621 100.0%

Memory usage: 1.27 GiB
Date: Sun Nov 20 20:33:00 2022
