
  ___ ___ ___ _ _ _  
 |   |   |_  | | | | 
 | | | | | . | | | | 
 |__ |  _|___|_____|  22.1.0
 |___|_|             

User:   thorkong@node026.cluster
Date:   Sat Oct  8 22:07:16 2022
Arch:   x86_64
Pid:    98420
Python: 3.10.5
gpaw:   /groups/kemi/thorkong/miniconda3/envs/gpaw22/lib/python3.10/site-packages/gpaw
_gpaw:  /groups/kemi/thorkong/miniconda3/envs/gpaw22/lib/python3.10/site-packages/
        _gpaw.cpython-310-x86_64-linux-gnu.so
ase:    /groups/kemi/thorkong/miniconda3/envs/gpaw22/lib/python3.10/site-packages/ase (version 3.22.1)
numpy:  /groups/kemi/thorkong/miniconda3/envs/gpaw22/lib/python3.10/site-packages/numpy (version 1.23.0)
scipy:  /groups/kemi/thorkong/miniconda3/envs/gpaw22/lib/python3.10/site-packages/scipy (version 1.8.1)
libxc:  5.2.3
units:  Angstrom and eV
cores: 32
OpenMP: True
OMP_NUM_THREADS: 1

Input parameters:
  basis: dzp
  kpts: [4 4 1]
  mode: {ecut: 600.0,
         name: pw}
  xc: BEEF-vdW

System changes: positions, numbers, cell, pbc, initial_charges, initial_magmoms 

Initialize ...

Cu-setup:
  name: Copper
  id: f1c4d45d90492f1bbfdcb091e8418fdf
  Z: 29.0
  valence: 11
  core: 18
  charge: 0.0
  file: /groups/kemi/thorkong/miniconda3/envs/gpaw22/share/gpaw/Cu.PBE.gz
  compensation charges: gauss, rc=0.33, lmax=2
  cutoffs: 2.06(filt), 2.43(core),
  valence states:
                energy  radius
    4s(1.00)    -4.609   1.164
    4p(0.00)    -0.698   1.164
    3d(10.00)    -5.039   1.058
    *s          22.603   1.164
    *p          26.513   1.164
    *d          22.172   1.058

  LCAO basis set for Cu:
    Name: dzp
    File: /groups/kemi/thorkong/miniconda3/envs/gpaw22/share/gpaw/Cu.dzp.basis.gz
    Number of radial functions: 5
    Number of spherical harmonics: 15
      l=0, rc=8.9688 Bohr: 4s-sz confined orbital
      l=2, rc=5.1719 Bohr: 3d-sz confined orbital
      l=0, rc=5.3281 Bohr: 4s-dz split-valence wave
      l=2, rc=3.1406 Bohr: 3d-dz split-valence wave
      l=1, rc=8.9688 Bohr: p-type Gaussian polarization

Cl-setup:
  name: Chlorine
  id: 726897f06f34e53cf8e33b5885a02604
  Z: 17.0
  valence: 7
  core: 10
  charge: 0.0
  file: /groups/kemi/thorkong/miniconda3/envs/gpaw22/share/gpaw/Cl.PBE.gz
  compensation charges: gauss, rc=0.25, lmax=2
  cutoffs: 1.40(filt), 1.49(core),
  valence states:
                energy  radius
    3s(2.00)   -20.689   0.794
    3p(5.00)    -8.594   0.794
    *s           6.523   0.794
    *p          18.617   0.794
    *d           0.000   0.794

  LCAO basis set for Cl:
    Name: dzp
    File: /groups/kemi/thorkong/miniconda3/envs/gpaw22/share/gpaw/Cl.dzp.basis.gz
    Number of radial functions: 5
    Number of spherical harmonics: 13
      l=0, rc=5.1719 Bohr: 3s-sz confined orbital
      l=1, rc=6.2656 Bohr: 3p-sz confined orbital
      l=0, rc=2.8281 Bohr: 3s-dz split-valence wave
      l=1, rc=3.5156 Bohr: 3p-dz split-valence wave
      l=2, rc=6.2656 Bohr: d-type Gaussian polarization

Reference energy: -2556707.893378

Spin-paired calculation

Convergence criteria:
 Maximum [total energy] change in last 3 cyles: 0.0005 eV / electron
 Maximum integral of absolute [dens]ity change: 0.0001 electrons / valence electron
 Maximum integral of absolute [eigenst]ate change: 4e-08 eV^2 / valence electron
 Maximum number of scf [iter]ations: 333
 (Square brackets indicate name in SCF output, whereas a 'c' in
 the SCF output indicates the quantity has converged.)

Symmetries present (total): 1

  ( 1  0  0)
  ( 0  1  0)
  ( 0  0  1)

16 k-points: 4 x 4 x 1 Monkhorst-Pack grid
8 k-points in the irreducible part of the Brillouin zone
       k-points in crystal coordinates                weights
   0:     0.12500000   -0.37500000    0.00000000          2/16
   1:     0.12500000   -0.12500000    0.00000000          2/16
   2:     0.12500000    0.12500000    0.00000000          2/16
   3:     0.12500000    0.37500000    0.00000000          2/16
   4:     0.37500000   -0.37500000    0.00000000          2/16
   5:     0.37500000   -0.12500000    0.00000000          2/16
   6:     0.37500000    0.12500000    0.00000000          2/16
   7:     0.37500000    0.37500000    0.00000000          2/16

Wave functions: Plane wave expansion
  Cutoff energy: 600.000 eV
  Number of coefficients (min, max): 54614, 54705
  Pulay-stress correction: 0.000000 eV/Ang^3 (de/decut=0.000000)
  Using FFTW library
  ScaLapack parameters: grid=2x2, blocksize=64
  Wavefunction extrapolation:
    Improved wavefunction reuse through dual PAW basis 

Occupation numbers: Fermi-Dirac: width=0.1000 eV
 

Eigensolver
   Davidson(niter=2) 

Densities:
  Coarse grid: 45*45*175 grid
  Fine grid: 90*90*350 grid
  Total Charge: 0.000000 

Density mixing:
  Method: separate
  Backend: pulay
  Linear mixing parameter: 0.05
  Mixing with 5 old densities
  Damping of long wave oscillations: 50 

Hamiltonian:
  XC and Coulomb potentials evaluated on a 90*90*350 grid
  Using the BEEF-vdW Exchange-Correlation functional
  External potential:
    NoExternalPotential
 

XC parameters: BEEF-vdW with 2 nearest neighbor stencil

Memory estimate:
  Process memory now: 245.70 MiB
  Calculator: 774.03 MiB
    Density: 42.61 MiB
      Arrays: 17.67 MiB
      Localized functions: 18.14 MiB
      Mixer: 6.80 MiB
    Hamiltonian: 12.00 MiB
      Arrays: 11.56 MiB
      XC: 0.00 MiB
      Poisson: 0.00 MiB
      vbar: 0.44 MiB
    Wavefunctions: 719.43 MiB
      Arrays psit_nG: 336.40 MiB
      Eigensolver: 365.36 MiB
      Projections: 1.69 MiB
      Projectors: 2.09 MiB
      PW-descriptor: 13.88 MiB

Total number of cores used: 32
Parallelization over k-points: 8
Domain decomposition: 1 x 1 x 4
                      2 x 2 x 8 (xc only)

Number of atoms: 64
Number of atomic orbitals: 940
Number of bands in calculation: 403
Number of valence electrons: 664
Bands to converge: occupied

... initialized

Initializing position-dependent things.

Density initialized from atomic densities
Creating initial wave functions:
  403 bands from LCAO basis set

                                              
                                              
                                              
                                              
                             Cl     Cl        
                                              
                 Cl      Cl                   
          Cl            Cu    Cu     Cu       
                   Cu     Cu    Cu            
               Cu    Cu     Cu                
                    Cu     Cu    Cu           
                Cu    Cu    Cu                
           Cu    Cu     Cu                    
                Cu     Cu    Cu               
            Cu    Cu    CCu                   
       Cu     Cu    Cu        Cu     Cu       
                   Cu     Cu    Cu            
               Cu    Cu     Cu                
                    Cu     Cu    Cu           
                Cu    Cu    Cu                
           Cu    Cu     Cu                    
                Cu     Cu    Cu               
            Cu    Cu     Cu                   
       Cu     Cu    Cu            Cl          
                   Cl      Cl                 
                                              
        Cl     Cl                             
                                              
                                              
                                              
                                              

Positions:
   0 Cu     2.876904   -0.070231   10.051394    ( 0.0000,  0.0000,  0.0000)
   1 Cu     4.190349    2.199946   10.011000    ( 0.0000,  0.0000,  0.0000)
   2 Cu     0.259979   -0.045657    9.986775    ( 0.0000,  0.0000,  0.0000)
   3 Cu     1.600944    2.212471    9.912055    ( 0.0000,  0.0000,  0.0000)
   4 Cu     2.882544    2.999900   12.122170    ( 0.0000,  0.0000,  0.0000)
   5 Cu     1.581856    0.734618   12.132651    ( 0.0000,  0.0000,  0.0000)
   6 Cu     5.517569    2.986884   12.120102    ( 0.0000,  0.0000,  0.0000)
   7 Cu     4.209134    0.733201   12.151872    ( 0.0000,  0.0000,  0.0000)
   8 Cu     5.513084    1.506087   14.287297    ( 0.0000,  0.0000,  0.0000)
   9 Cu     6.824471    3.765126   14.268607    ( 0.0000,  0.0000,  0.0000)
  10 Cu     2.895291    1.503931   14.269080    ( 0.0000,  0.0000,  0.0000)
  11 Cu     4.202361    3.768532   14.259898    ( 0.0000,  0.0000,  0.0000)
  12 Cu     2.893322    0.011170   16.414194    ( 0.0000,  0.0000,  0.0000)
  13 Cu     4.196821    2.280037   16.420049    ( 0.0000,  0.0000,  0.0000)
  14 Cu     0.270599    0.006148   16.416658    ( 0.0000,  0.0000,  0.0000)
  15 Cu     1.583735    2.273455   16.405157    ( 0.0000,  0.0000,  0.0000)
  16 Cu     2.875707    3.048776   18.572346    ( 0.0000,  0.0000,  0.0000)
  17 Cu     1.568534    0.776320   18.542181    ( 0.0000,  0.0000,  0.0000)
  18 Cu     5.504411    3.057811   18.569174    ( 0.0000,  0.0000,  0.0000)
  19 Cu     4.202826    0.791333   18.544011    ( 0.0000,  0.0000,  0.0000)
  20 Cu     5.498393    1.556589   20.716682    ( 0.0000,  0.0000,  0.0000)
  21 Cu     6.830496    3.842309   20.682916    ( 0.0000,  0.0000,  0.0000)
  22 Cu     2.842256    1.522040   20.666065    ( 0.0000,  0.0000,  0.0000)
  23 Cu     4.184721    3.781674   20.745159    ( 0.0000,  0.0000,  0.0000)
  24 Cu     5.523486    4.487107    9.971302    ( 0.0000,  0.0000,  0.0000)
  25 Cu     2.904264    4.499584    9.999494    ( 0.0000,  0.0000,  0.0000)
  26 Cu     4.221252    5.267475   12.125245    ( 0.0000,  0.0000,  0.0000)
  27 Cu     6.819902    5.252436   12.143672    ( 0.0000,  0.0000,  0.0000)
  28 Cu     8.128243    6.033127   14.275071    ( 0.0000,  0.0000,  0.0000)
  29 Cu     5.514712    6.038498   14.280899    ( 0.0000,  0.0000,  0.0000)
  30 Cu     5.508278    4.539432   16.401631    ( 0.0000,  0.0000,  0.0000)
  31 Cu     2.894703    4.540777   16.414778    ( 0.0000,  0.0000,  0.0000)
  32 Cu     4.202610    5.296544   18.558705    ( 0.0000,  0.0000,  0.0000)
  33 Cu     6.811591    5.310465   18.538411    ( 0.0000,  0.0000,  0.0000)
  34 Cu     8.144718    6.114141   20.635046    ( 0.0000,  0.0000,  0.0000)
  35 Cu     5.515948    6.039091   20.669499    ( 0.0000,  0.0000,  0.0000)
  36 Cu     5.504197    0.005690   10.013680    ( 0.0000,  0.0000,  0.0000)
  37 Cu     6.836520    2.263195    9.940898    ( 0.0000,  0.0000,  0.0000)
  38 Cu     8.146237    2.997275   12.110948    ( 0.0000,  0.0000,  0.0000)
  39 Cu     6.817689    0.748708   12.124617    ( 0.0000,  0.0000,  0.0000)
  40 Cu     8.125627    1.505476   14.268654    ( 0.0000,  0.0000,  0.0000)
  41 Cu     9.437141    3.772058   14.278737    ( 0.0000,  0.0000,  0.0000)
  42 Cu     5.506775    0.006353   16.406420    ( 0.0000,  0.0000,  0.0000)
  43 Cu     6.819177    2.277169   16.427410    ( 0.0000,  0.0000,  0.0000)
  44 Cu     8.138790    3.045555   18.565134    ( 0.0000,  0.0000,  0.0000)
  45 Cu     6.800646    0.777914   18.559977    ( 0.0000,  0.0000,  0.0000)
  46 Cu     8.115491    1.546136   20.688627    ( 0.0000,  0.0000,  0.0000)
  47 Cu     9.420759    3.831006   20.773545    ( 0.0000,  0.0000,  0.0000)
  48 Cu     8.178119    4.522404   10.012257    ( 0.0000,  0.0000,  0.0000)
  49 Cu     9.450737    5.269180   12.140937    ( 0.0000,  0.0000,  0.0000)
  50 Cu    10.749560    6.039523   14.265566    ( 0.0000,  0.0000,  0.0000)
  51 Cu     8.126275    4.541280   16.418804    ( 0.0000,  0.0000,  0.0000)
  52 Cu     9.439372    5.309655   18.553893    ( 0.0000,  0.0000,  0.0000)
  53 Cu    10.761389    6.090345   20.694568    ( 0.0000,  0.0000,  0.0000)
  54 Cl     3.892780    1.859684   23.268410    ( 0.0000,  0.0000,  0.0000)
  55 Cl     7.120305    4.184000    7.410567    ( 0.0000,  0.0000,  0.0000)
  56 Cl    10.817387    4.804565   23.246760    ( 0.0000,  0.0000,  0.0000)
  57 Cl     0.200177    1.243830    7.436697    ( 0.0000,  0.0000,  0.0000)
  58 Cl     9.917358    5.751062    7.435399    ( 0.0000,  0.0000,  0.0000)
  59 Cl     1.106172    0.288394   23.248170    ( 0.0000,  0.0000,  0.0000)
  60 Cl     7.781504    5.407198   23.297715    ( 0.0000,  0.0000,  0.0000)
  61 Cl     3.232692    0.621771    7.380078    ( 0.0000,  0.0000,  0.0000)
  62 Cl     6.862020    2.499892   23.198661    ( 0.0000,  0.0000,  0.0000)
  63 Cl     4.150783    3.528700    7.498432    ( 0.0000,  0.0000,  0.0000)

Unit cell:
           periodic     x           y           z      points  spacing
  1. axis:    yes    7.851007    0.000000    0.000000    45     0.1511
  2. axis:    yes    3.925503    6.799171    0.000000    45     0.1511
  3. axis:    yes    0.000000    0.000000   30.683867   175     0.1753

  Lengths:   7.851007   7.851006  30.683867
  Angles:   90.000000  90.000000  60.000001

Effective grid spacing dv^(1/3) = 0.1666

     iter     time        total  log10-change:
                         energy  eigst   dens
iter:   1 22:13:18 -4969.736102
iter:   2 22:14:06 -4966.433846  +1.46  -0.69
iter:   3 22:15:09 -4767.313190  +1.15  -0.73
iter:   4 22:16:14 -4620.814693  -0.09  -0.84
iter:   5 22:17:08 -4494.385915  -0.70  -1.19
iter:   6 22:18:01 -4665.816145  -0.07  -1.36
iter:   7 22:18:51 -4493.404690  -1.31  -0.98
iter:   8 22:19:49 -4457.254414  -1.31  -1.35
iter:   9 22:20:42 -4459.885657  -2.56  -1.49
iter:  10 22:21:29 -4453.382686  -2.18  -1.47
iter:  11 22:22:24 -4453.684586  -2.27  -1.57
iter:  12 22:23:18 -4452.820546  -2.91  -1.53
iter:  13 22:24:06 -4452.422927  -2.11  -1.57
iter:  14 22:25:00 -4450.141183  -2.05  -1.61
iter:  15 22:26:04 -4449.558216  -3.26  -1.67
iter:  16 22:26:58 -4451.155722  -2.28  -1.70
iter:  17 22:27:45 -4449.326919  -2.41  -1.77
iter:  18 22:28:39 -4447.744764  -2.82  -1.86
iter:  19 22:29:43 -4447.843120  -3.22  -2.08
iter:  20 22:30:31 -4446.886919  -3.38  -1.99
iter:  21 22:31:24 -4447.006471  -4.01  -2.31
iter:  22 22:32:18 -4447.039073c -4.38  -2.17
iter:  23 22:33:10 -4446.859433c -4.63  -2.16
iter:  24 22:34:00 -4446.837486c -4.34  -2.27
iter:  25 22:35:06 -4446.723631c -3.68  -2.32
iter:  26 22:36:01 -4446.717981c -4.14  -2.64
iter:  27 22:36:49 -4446.682080c -4.36  -2.68
iter:  28 22:37:56 -4446.678534c -4.59  -2.98
iter:  29 22:38:57 -4446.682940c -4.85  -3.03
iter:  30 22:39:54 -4446.673720c -5.66  -2.93
iter:  31 22:41:00 -4446.684532c -5.61  -3.25
iter:  32 22:41:48 -4446.675945c -6.01  -2.97
iter:  33 22:42:40 -4446.676520c -5.41  -3.11
iter:  34 22:43:42 -4446.677570c -5.82  -3.30
iter:  35 22:44:47 -4446.677926c -5.43  -3.28
iter:  36 22:45:56 -4446.674043c -5.37  -3.26
iter:  37 22:47:02 -4446.674988c -6.04  -3.61
iter:  38 22:48:05 -4446.675019c -7.30  -3.73
iter:  39 22:49:05 -4446.675214c -6.18  -3.77
iter:  40 22:50:00 -4446.674753c -7.22  -4.09c
iter:  41 22:50:51 -4446.674873c -7.70c -4.16c

Converged after 41 iterations.

Dipole moment: (-21.418411, -14.088736, 0.000244) |e|*Ang

Energy contributions relative to reference atoms: (reference = -2556707.893378)

Kinetic:       +415.643431
Potential:     -459.938374
External:        +0.000000
XC:            -4401.200279
Entropy (-ST):   -1.117430
Local:           -0.620936
--------------------------
Free energy:   -4447.233587
Extrapolated:  -4446.674873

Showing only first 2 kpts
 Kpt  Band  Eigenvalues  Occupancy
  0   330     -0.16927    0.90031
  0   331     -0.16200    0.86447
  0   332     -0.13889    0.75327
  0   333     -0.11175    0.63069

  1   330     -0.49178    1.90739
  1   331     -0.38573    1.75404
  1   332     -0.36056    1.69441
  1   333     -0.20480    1.07746


Fermi level: -0.18927

No gap

Forces in eV/Ang:
  0 Cu    0.10773    0.23548   -0.76797
  1 Cu    0.01129    0.21942   -0.63619
  2 Cu    0.03910    0.22738   -0.50662
  3 Cu   -0.13528   -0.05506   -0.24628
  4 Cu   -0.00381   -0.02341   -0.14017
  5 Cu    0.00583    0.02050   -0.11156
  6 Cu    0.01610    0.02263   -0.12163
  7 Cu   -0.01348   -0.01293   -0.13303
  8 Cu    0.00169    0.01200   -0.02140
  9 Cu   -0.00526   -0.01249   -0.02042
 10 Cu    0.00426    0.01071    0.00059
 11 Cu    0.00638    0.00727   -0.02638
 12 Cu   -0.00995   -0.00588    0.00092
 13 Cu    0.00600    0.01349    0.01717
 14 Cu   -0.01101    0.01023    0.01339
 15 Cu   -0.00851   -0.00038    0.02203
 16 Cu    0.00485   -0.00542    0.11766
 17 Cu    0.02901   -0.00837    0.13385
 18 Cu   -0.01520   -0.02130    0.12862
 19 Cu   -0.02581   -0.00989    0.12676
 20 Cu    0.00758    0.06090    0.52982
 21 Cu   -0.00784   -0.20194    0.62898
 22 Cu    0.24932    0.12665    0.66767
 23 Cu   -0.11765    0.11752    0.40828
 24 Cu   -0.01247   -0.06018   -0.52482
 25 Cu    0.01913    0.00040   -0.64653
 26 Cu   -0.01979    0.02146   -0.15445
 27 Cu    0.02218    0.01138   -0.12633
 28 Cu    0.00763    0.00808   -0.00688
 29 Cu   -0.00978    0.00414   -0.02458
 30 Cu   -0.00246   -0.01551    0.01856
 31 Cu   -0.00918   -0.00961    0.02927
 32 Cu   -0.02061    0.01542    0.11303
 33 Cu    0.01565    0.01420    0.12989
 34 Cu   -0.11218   -0.23857    0.77864
 35 Cu   -0.11111    0.25348    0.60896
 36 Cu    0.11373   -0.25527   -0.60066
 37 Cu    0.11479   -0.12016   -0.40818
 38 Cu   -0.00814    0.00343   -0.11013
 39 Cu    0.02404   -0.01570   -0.10469
 40 Cu    0.01083    0.00621   -0.02615
 41 Cu    0.00632   -0.00022   -0.01487
 42 Cu    0.00939   -0.00257    0.02361
 43 Cu   -0.00746   -0.00823    0.02682
 44 Cu    0.00251    0.02248    0.15175
 45 Cu    0.01831   -0.02081    0.16110
 46 Cu   -0.01224   -0.00914    0.63687
 47 Cu    0.13599    0.05942    0.25072
 48 Cu   -0.24779   -0.12519   -0.65229
 49 Cu   -0.02464    0.00640   -0.12417
 50 Cu    0.01242   -0.00965   -0.00526
 51 Cu   -0.00739   -0.01241    0.00119
 52 Cu   -0.00635   -0.01843    0.11343
 53 Cu   -0.04044   -0.22922    0.51884
 54 Cl   -0.14697   -0.23273   -1.17655
 55 Cl    0.15601    0.23375    1.16931
 56 Cl   -0.04591    0.03174   -1.42113
 57 Cl    0.04879   -0.01269    1.41833
 58 Cl   -0.29242    0.06978    1.17415
 59 Cl    0.29084   -0.06156   -1.16619
 60 Cl   -0.05185    0.25135   -1.14008
 61 Cl    0.05043   -0.25852    1.12307
 62 Cl   -0.03292    0.01674   -1.34747
 63 Cl    0.02312   -0.04015    1.35665

System changes: positions 

Initializing position-dependent things.

Density initialized from wave functions
                                              
                                              
                                              
                                              
                             Cl     Cl        
                                              
                 Cl      Cl                   
          Cl            Cu    Cu     Cu       
                   Cu     Cu    Cu            
               Cu    Cu     Cu                
                    Cu     Cu    Cu           
                Cu    Cu    Cu                
           Cu    Cu     Cu                    
                Cu     Cu    Cu               
            Cu    Cu     Cu                   
       Cu     Cu    Cu  Cu    Cu     Cu       
                   Cu     Cu    Cu            
               Cu    Cu     Cu                
                    Cu     Cu    Cu           
                Cu    Cu    Cu                
           Cu    Cu     Cu                    
                Cu     Cu    Cu               
            Cu    Cu     Cu                   
       Cu     Cu    Cu            Cl          
                   Cl      Cl                 
                                              
        Cl     Cl                             
                                              
                                              
                                              
                                              

Positions:
   0 Cu     2.887677   -0.046683    9.974597    ( 0.0000,  0.0000,  0.0000)
   1 Cu     4.191478    2.221888    9.947381    ( 0.0000,  0.0000,  0.0000)
   2 Cu     0.263889   -0.022919    9.936113    ( 0.0000,  0.0000,  0.0000)
   3 Cu     1.587416    2.206965    9.887427    ( 0.0000,  0.0000,  0.0000)
   4 Cu     2.882163    2.997559   12.108153    ( 0.0000,  0.0000,  0.0000)
   5 Cu     1.582439    0.736668   12.121495    ( 0.0000,  0.0000,  0.0000)
   6 Cu     5.519179    2.989147   12.107939    ( 0.0000,  0.0000,  0.0000)
   7 Cu     4.207786    0.731908   12.138569    ( 0.0000,  0.0000,  0.0000)
   8 Cu     5.513253    1.507287   14.285157    ( 0.0000,  0.0000,  0.0000)
   9 Cu     6.823945    3.763877   14.266565    ( 0.0000,  0.0000,  0.0000)
  10 Cu     2.895717    1.505002   14.269139    ( 0.0000,  0.0000,  0.0000)
  11 Cu     4.202999    3.769259   14.257260    ( 0.0000,  0.0000,  0.0000)
  12 Cu     2.892327    0.010582   16.414286    ( 0.0000,  0.0000,  0.0000)
  13 Cu     4.197421    2.281386   16.421766    ( 0.0000,  0.0000,  0.0000)
  14 Cu     0.269498    0.007171   16.417997    ( 0.0000,  0.0000,  0.0000)
  15 Cu     1.582884    2.273417   16.407360    ( 0.0000,  0.0000,  0.0000)
  16 Cu     2.876192    3.048234   18.584112    ( 0.0000,  0.0000,  0.0000)
  17 Cu     1.571435    0.775483   18.555566    ( 0.0000,  0.0000,  0.0000)
  18 Cu     5.502891    3.055681   18.582036    ( 0.0000,  0.0000,  0.0000)
  19 Cu     4.200245    0.790344   18.556687    ( 0.0000,  0.0000,  0.0000)
  20 Cu     5.499151    1.562679   20.769664    ( 0.0000,  0.0000,  0.0000)
  21 Cu     6.829712    3.822115   20.745814    ( 0.0000,  0.0000,  0.0000)
  22 Cu     2.867188    1.534705   20.732832    ( 0.0000,  0.0000,  0.0000)
  23 Cu     4.172956    3.793426   20.785987    ( 0.0000,  0.0000,  0.0000)
  24 Cu     5.522239    4.481089    9.918820    ( 0.0000,  0.0000,  0.0000)
  25 Cu     2.906177    4.499624    9.934841    ( 0.0000,  0.0000,  0.0000)
  26 Cu     4.219273    5.269621   12.109800    ( 0.0000,  0.0000,  0.0000)
  27 Cu     6.822120    5.253574   12.131039    ( 0.0000,  0.0000,  0.0000)
  28 Cu     8.129006    6.033935   14.274383    ( 0.0000,  0.0000,  0.0000)
  29 Cu     5.513734    6.038912   14.278441    ( 0.0000,  0.0000,  0.0000)
  30 Cu     5.508032    4.537881   16.403487    ( 0.0000,  0.0000,  0.0000)
  31 Cu     2.893785    4.539816   16.417705    ( 0.0000,  0.0000,  0.0000)
  32 Cu     4.200549    5.298086   18.570008    ( 0.0000,  0.0000,  0.0000)
  33 Cu     6.813156    5.311885   18.551400    ( 0.0000,  0.0000,  0.0000)
  34 Cu     8.133500    6.090284   20.712910    ( 0.0000,  0.0000,  0.0000)
  35 Cu     5.504837    6.064439   20.730395    ( 0.0000,  0.0000,  0.0000)
  36 Cu     5.515570   -0.019837    9.953614    ( 0.0000,  0.0000,  0.0000)
  37 Cu     6.847999    2.251179    9.900080    ( 0.0000,  0.0000,  0.0000)
  38 Cu     8.145423    2.997618   12.099935    ( 0.0000,  0.0000,  0.0000)
  39 Cu     6.820093    0.747138   12.114148    ( 0.0000,  0.0000,  0.0000)
  40 Cu     8.126710    1.506097   14.266039    ( 0.0000,  0.0000,  0.0000)
  41 Cu     9.437773    3.772036   14.277250    ( 0.0000,  0.0000,  0.0000)
  42 Cu     5.507714    0.006096   16.408781    ( 0.0000,  0.0000,  0.0000)
  43 Cu     6.818431    2.276346   16.430092    ( 0.0000,  0.0000,  0.0000)
  44 Cu     8.139041    3.047803   18.580309    ( 0.0000,  0.0000,  0.0000)
  45 Cu     6.802477    0.775833   18.576087    ( 0.0000,  0.0000,  0.0000)
  46 Cu     8.114267    1.545222   20.752314    ( 0.0000,  0.0000,  0.0000)
  47 Cu     9.434358    3.836948   20.798617    ( 0.0000,  0.0000,  0.0000)
  48 Cu     8.153340    4.509885    9.947028    ( 0.0000,  0.0000,  0.0000)
  49 Cu     9.448273    5.269820   12.128520    ( 0.0000,  0.0000,  0.0000)
  50 Cu    10.750802    6.038558   14.265040    ( 0.0000,  0.0000,  0.0000)
  51 Cu     8.125536    4.540039   16.418923    ( 0.0000,  0.0000,  0.0000)
  52 Cu     9.438737    5.307812   18.565236    ( 0.0000,  0.0000,  0.0000)
  53 Cu    10.757345    6.067423   20.746452    ( 0.0000,  0.0000,  0.0000)
  54 Cl     3.878083    1.836411   23.150755    ( 0.0000,  0.0000,  0.0000)
  55 Cl     7.135906    4.207375    7.527498    ( 0.0000,  0.0000,  0.0000)
  56 Cl    10.812796    4.807739   23.104647    ( 0.0000,  0.0000,  0.0000)
  57 Cl     0.205056    1.242561    7.578530    ( 0.0000,  0.0000,  0.0000)
  58 Cl     9.888116    5.758040    7.552814    ( 0.0000,  0.0000,  0.0000)
  59 Cl     1.135256    0.282238   23.131551    ( 0.0000,  0.0000,  0.0000)
  60 Cl     7.776319    5.432333   23.183707    ( 0.0000,  0.0000,  0.0000)
  61 Cl     3.237735    0.595919    7.492385    ( 0.0000,  0.0000,  0.0000)
  62 Cl     6.858728    2.501566   23.063914    ( 0.0000,  0.0000,  0.0000)
  63 Cl     4.153095    3.524685    7.634097    ( 0.0000,  0.0000,  0.0000)

Unit cell:
           periodic     x           y           z      points  spacing
  1. axis:    yes    7.851007    0.000000    0.000000    45     0.1511
  2. axis:    yes    3.925503    6.799171    0.000000    45     0.1511
  3. axis:    yes    0.000000    0.000000   30.683867   175     0.1753

  Lengths:   7.851007   7.851006  30.683867
  Angles:   90.000000  90.000000  60.000001

Effective grid spacing dv^(1/3) = 0.1666

     iter     time        total  log10-change:
                         energy  eigst   dens
iter:   1 22:52:20 -4546.700747  -0.91
iter:   2 22:53:10 -4547.428633  +0.02  -1.05
iter:   3 22:54:06 -4471.845270  -0.52  -1.21
iter:   4 22:55:00 -4474.335451  -1.61  -1.58
iter:   5 22:55:54 -4455.422774  -2.10  -1.57
iter:   6 22:57:03 -4452.149177  -2.52  -1.78
iter:   7 22:57:58 -4471.250631  -1.44  -1.87
iter:   8 22:58:52 -4460.364768  -2.54  -1.43
iter:   9 22:59:46 -4451.617042  -2.43  -1.65
iter:  10 23:00:35 -4458.717132  -2.26  -2.13
iter:  11 23:01:30 -4452.536596  -2.88  -1.62
iter:  12 23:02:24 -4451.371885  -3.73  -1.86
iter:  13 23:03:19 -4450.799164  -3.73  -1.95
iter:  14 23:04:22 -4450.389723  -3.44  -2.05
iter:  15 23:05:17 -4450.693675  -2.61  -2.02
iter:  16 23:06:13 -4449.216786  -3.29  -1.95
iter:  17 23:07:00 -4449.234183  -3.90  -2.53
iter:  18 23:07:47 -4449.165028c -4.18  -2.55
iter:  19 23:08:38 -4449.155187c -4.21  -2.68
iter:  20 23:09:22 -4449.224986c -4.39  -2.80
iter:  21 23:10:19 -4449.167938c -5.54  -2.54
iter:  22 23:11:11 -4449.146015c -4.36  -2.71
iter:  23 23:12:04 -4449.136976c -5.68  -2.77
iter:  24 23:13:08 -4449.134299c -4.77  -2.87
iter:  25 23:14:08 -4449.126092c -5.45  -3.07
iter:  26 23:15:18 -4449.125025c -5.70  -3.49
iter:  27 23:16:15 -4449.123569c -6.10  -3.74
iter:  28 23:17:03 -4449.124835c -6.43  -3.77
iter:  29 23:18:04 -4449.124312c -6.39  -3.83
iter:  30 23:19:11 -4449.124452c -6.70  -3.80
iter:  31 23:20:18 -4449.124283c -7.78c -4.11c

Converged after 31 iterations.

Dipole moment: (-21.225903, -15.483656, 0.002451) |e|*Ang

Energy contributions relative to reference atoms: (reference = -2556707.893378)

Kinetic:       +417.892558
Potential:     -462.004258
External:        +0.000000
XC:            -4403.751284
Entropy (-ST):   -1.001213
Local:           -0.760694
--------------------------
Free energy:   -4449.624890
Extrapolated:  -4449.124283

Showing only first 2 kpts
 Kpt  Band  Eigenvalues  Occupancy
  0   330     -0.15575    1.16993
  0   331     -0.08319    0.81107
  0   332     -0.02735    0.56146
  0   333     -0.01088    0.49739

  1   330     -0.40317    1.88721
  1   331     -0.34372    1.80457
  1   332     -0.31773    1.75370
  1   333     -0.18791    1.32067


Fermi level: -0.12144

No gap

Forces in eV/Ang:
  0 Cu    0.09054    0.15147   -0.66852
  1 Cu    0.03921    0.09241   -0.56519
  2 Cu    0.05322    0.09736   -0.46948
  3 Cu   -0.05638    0.00930   -0.26778
  4 Cu    0.00760    0.00313   -0.20736
  5 Cu    0.03467   -0.03178   -0.17716
  6 Cu    0.00040    0.00181   -0.19289
  7 Cu    0.01763    0.00790   -0.27243
  8 Cu    0.00090    0.00149   -0.04043
  9 Cu   -0.00236    0.00315   -0.04406
 10 Cu    0.00798    0.00806   -0.03467
 11 Cu    0.00456    0.00738   -0.05891
 12 Cu   -0.00703   -0.00584    0.03593
 13 Cu    0.00329   -0.00336    0.04122
 14 Cu   -0.00098    0.00346    0.04306
 15 Cu   -0.00771   -0.00225    0.04046
 16 Cu    0.00147   -0.03596    0.15314
 17 Cu    0.03435    0.02003    0.23499
 18 Cu   -0.00154   -0.00105    0.18937
 19 Cu   -0.00132   -0.05243    0.25175
 20 Cu   -0.01489   -0.01620    0.52261
 21 Cu   -0.03725   -0.08542    0.56788
 22 Cu    0.17661    0.07614    0.61216
 23 Cu   -0.02075    0.09922    0.40899
 24 Cu    0.01474    0.01750   -0.51558
 25 Cu   -0.02932    0.01096   -0.59870
 26 Cu   -0.00844    0.02078   -0.24250
 27 Cu   -0.00196    0.05305   -0.25670
 28 Cu    0.00603    0.00693   -0.04137
 29 Cu    0.00022   -0.00135   -0.04361
 30 Cu   -0.00076   -0.00192    0.03488
 31 Cu   -0.00687   -0.00535    0.04514
 32 Cu    0.02396    0.02446    0.17358
 33 Cu   -0.01686   -0.00398    0.26247
 34 Cu   -0.09320   -0.15036    0.67260
 35 Cu   -0.05416    0.16184    0.55491
 36 Cu    0.05592   -0.16347   -0.55098
 37 Cu    0.02016   -0.10013   -0.40828
 38 Cu   -0.00382    0.03460   -0.15452
 39 Cu   -0.02354   -0.02550   -0.17416
 40 Cu    0.00752    0.00384   -0.04245
 41 Cu    0.00704    0.00267   -0.03764
 42 Cu   -0.00044    0.00237    0.03947
 43 Cu   -0.00534   -0.00812    0.05912
 44 Cu   -0.00770   -0.00431    0.20613
 45 Cu    0.00583   -0.02291    0.24135
 46 Cu    0.03091   -0.01410    0.59314
 47 Cu    0.05556   -0.00730    0.27154
 48 Cu   -0.17543   -0.07610   -0.60285
 49 Cu   -0.02961   -0.02172   -0.23555
 50 Cu    0.00278   -0.00398   -0.03819
 51 Cu   -0.00868   -0.00865    0.03348
 52 Cu   -0.03415    0.03399    0.17167
 53 Cu   -0.05531   -0.09897    0.47871
 54 Cl   -0.11728   -0.14307   -1.31954
 55 Cl    0.10887    0.13294    1.32132
 56 Cl   -0.04702    0.01149   -1.59208
 57 Cl    0.05125    0.00572    1.60304
 58 Cl   -0.18057    0.07808    1.34003
 59 Cl    0.19947   -0.07245   -1.31463
 60 Cl   -0.00367    0.18822   -1.25547
 61 Cl   -0.00672   -0.18124    1.24277
 62 Cl   -0.02260    0.01501   -1.52638
 63 Cl    0.01582   -0.03349    1.54744

System changes: positions 

Initializing position-dependent things.

Density initialized from wave functions
                                              
                                              
                                              
                                              
                             Cl               
                                    Cl        
                 Cl     CCl   Cu     Cu       
          Cl                                  
                   Cu     Cu    Cu            
               Cu    Cu     Cu                
                    Cu     Cu    Cu           
                Cu    Cu     Cu               
           Cu    Cu     Cu                    
                Cu     Cu    Cu               
            Cu    Cu     Cu                   
       Cu     Cu    Cu  Cu    Cu     Cu       
                   Cu     Cu    Cu            
               Cu    Cu     Cu                
                    Cu     Cu    Cu           
                Cu    Cu    Cu                
           Cu    Cu     Cu                    
                Cu     Cu    Cu               
            Cu    Cu     Cu                   
                                  Cl          
       Cu     Cu   CCu     Cl                 
        Cl                                    
               Cl                             
                                              
                                              
                                              
                                              

Positions:
   0 Cu     2.902826   -0.013568    9.866602    ( 0.0000,  0.0000,  0.0000)
   1 Cu     4.193066    2.252745    9.857916    ( 0.0000,  0.0000,  0.0000)
   2 Cu     0.269387    0.009056    9.864871    ( 0.0000,  0.0000,  0.0000)
   3 Cu     1.568391    2.199222    9.852794    ( 0.0000,  0.0000,  0.0000)
   4 Cu     2.881628    2.994268   12.088442    ( 0.0000,  0.0000,  0.0000)
   5 Cu     1.583260    0.739550   12.105807    ( 0.0000,  0.0000,  0.0000)
   6 Cu     5.521443    2.992330   12.090834    ( 0.0000,  0.0000,  0.0000)
   7 Cu     4.205891    0.730089   12.119862    ( 0.0000,  0.0000,  0.0000)
   8 Cu     5.513491    1.508976   14.282147    ( 0.0000,  0.0000,  0.0000)
   9 Cu     6.823205    3.762121   14.263692    ( 0.0000,  0.0000,  0.0000)
  10 Cu     2.896317    1.506508   14.269223    ( 0.0000,  0.0000,  0.0000)
  11 Cu     4.203896    3.770281   14.253551    ( 0.0000,  0.0000,  0.0000)
  12 Cu     2.890929    0.009755   16.414415    ( 0.0000,  0.0000,  0.0000)
  13 Cu     4.198264    2.283283   16.424180    ( 0.0000,  0.0000,  0.0000)
  14 Cu     0.267951    0.008609   16.419881    ( 0.0000,  0.0000,  0.0000)
  15 Cu     1.581686    2.273365   16.410458    ( 0.0000,  0.0000,  0.0000)
  16 Cu     2.876874    3.047472   18.600658    ( 0.0000,  0.0000,  0.0000)
  17 Cu     1.575516    0.774306   18.574389    ( 0.0000,  0.0000,  0.0000)
  18 Cu     5.500754    3.052685   18.600122    ( 0.0000,  0.0000,  0.0000)
  19 Cu     4.196615    0.788953   18.574513    ( 0.0000,  0.0000,  0.0000)
  20 Cu     5.500218    1.571243   20.844171    ( 0.0000,  0.0000,  0.0000)
  21 Cu     6.828610    3.793716   20.834264    ( 0.0000,  0.0000,  0.0000)
  22 Cu     2.902249    1.552515   20.826724    ( 0.0000,  0.0000,  0.0000)
  23 Cu     4.156411    3.809951   20.843401    ( 0.0000,  0.0000,  0.0000)
  24 Cu     5.520486    4.472625    9.845017    ( 0.0000,  0.0000,  0.0000)
  25 Cu     2.908867    4.499681    9.843923    ( 0.0000,  0.0000,  0.0000)
  26 Cu     4.216489    5.272639   12.088080    ( 0.0000,  0.0000,  0.0000)
  27 Cu     6.825240    5.255174   12.113274    ( 0.0000,  0.0000,  0.0000)
  28 Cu     8.130080    6.035072   14.273417    ( 0.0000,  0.0000,  0.0000)
  29 Cu     5.512359    6.039494   14.274985    ( 0.0000,  0.0000,  0.0000)
  30 Cu     5.507687    4.535700   16.406096    ( 0.0000,  0.0000,  0.0000)
  31 Cu     2.892495    4.538465   16.421822    ( 0.0000,  0.0000,  0.0000)
  32 Cu     4.197652    5.300255   18.585902    ( 0.0000,  0.0000,  0.0000)
  33 Cu     6.815357    5.313881   18.569667    ( 0.0000,  0.0000,  0.0000)
  34 Cu     8.117725    6.056736   20.822407    ( 0.0000,  0.0000,  0.0000)
  35 Cu     5.489212    6.100084   20.816031    ( 0.0000,  0.0000,  0.0000)
  36 Cu     5.531562   -0.055735    9.869146    ( 0.0000,  0.0000,  0.0000)
  37 Cu     6.864142    2.234281    9.842679    ( 0.0000,  0.0000,  0.0000)
  38 Cu     8.144279    2.998100   12.084449    ( 0.0000,  0.0000,  0.0000)
  39 Cu     6.823473    0.744930   12.099427    ( 0.0000,  0.0000,  0.0000)
  40 Cu     8.128233    1.506971   14.262362    ( 0.0000,  0.0000,  0.0000)
  41 Cu     9.438661    3.772006   14.275160    ( 0.0000,  0.0000,  0.0000)
  42 Cu     5.509034    0.005735   16.412100    ( 0.0000,  0.0000,  0.0000)
  43 Cu     6.817382    2.275189   16.433863    ( 0.0000,  0.0000,  0.0000)
  44 Cu     8.139394    3.050964   18.601648    ( 0.0000,  0.0000,  0.0000)
  45 Cu     6.805051    0.772905   18.598742    ( 0.0000,  0.0000,  0.0000)
  46 Cu     8.112546    1.543936   20.841874    ( 0.0000,  0.0000,  0.0000)
  47 Cu     9.453481    3.845305   20.833874    ( 0.0000,  0.0000,  0.0000)
  48 Cu     8.118494    4.492281    9.855300    ( 0.0000,  0.0000,  0.0000)
  49 Cu     9.444809    5.270719   12.111059    ( 0.0000,  0.0000,  0.0000)
  50 Cu    10.752550    6.037200   14.264301    ( 0.0000,  0.0000,  0.0000)
  51 Cu     8.124498    4.538294   16.419090    ( 0.0000,  0.0000,  0.0000)
  52 Cu     9.437844    5.305220   18.581187    ( 0.0000,  0.0000,  0.0000)
  53 Cu    10.751657    6.035189   20.819414    ( 0.0000,  0.0000,  0.0000)
  54 Cl     3.857415    1.803682   22.985304    ( 0.0000,  0.0000,  0.0000)
  55 Cl     7.157844    4.240246    7.691932    ( 0.0000,  0.0000,  0.0000)
  56 Cl    10.806339    4.812203   22.904802    ( 0.0000,  0.0000,  0.0000)
  57 Cl     0.211918    1.240777    7.777982    ( 0.0000,  0.0000,  0.0000)
  58 Cl     9.846995    5.767854    7.717928    ( 0.0000,  0.0000,  0.0000)
  59 Cl     1.176155    0.273580   22.967555    ( 0.0000,  0.0000,  0.0000)
  60 Cl     7.769028    5.467679   23.023382    ( 0.0000,  0.0000,  0.0000)
  61 Cl     3.244828    0.559564    7.650316    ( 0.0000,  0.0000,  0.0000)
  62 Cl     6.854099    2.503921   22.874426    ( 0.0000,  0.0000,  0.0000)
  63 Cl     4.156345    3.519040    7.824876    ( 0.0000,  0.0000,  0.0000)

Unit cell:
           periodic     x           y           z      points  spacing
  1. axis:    yes    7.851007    0.000000    0.000000    45     0.1511
  2. axis:    yes    3.925503    6.799171    0.000000    45     0.1511
  3. axis:    yes    0.000000    0.000000   30.683867   175     0.1753

  Lengths:   7.851007   7.851006  30.683867
  Angles:   90.000000  90.000000  60.000001

Effective grid spacing dv^(1/3) = 0.1666

     iter     time        total  log10-change:
                         energy  eigst   dens
iter:   1 23:21:50 -4650.467874  -0.46
iter:   2 23:22:44 -4661.402129  +0.60  -0.90
iter:   3 23:23:34 -4558.185377  +0.43  -0.97
iter:   4 23:24:27 -4631.069564  -0.50  -1.21
iter:   5 23:25:21 -4465.323916  -1.37  -1.06
iter:   6 23:26:13 -4459.245306  -2.15  -1.76
iter:   7 23:27:02 -4461.551688  -2.34  -1.88
iter:   8 23:27:55 -4457.082974  -1.99  -1.82
iter:   9 23:28:50 -4456.535516  -1.91  -1.89
iter:  10 23:29:42 -4454.774772  -2.62  -1.89
iter:  11 23:30:44 -4455.447294  -2.66  -2.00
iter:  12 23:31:44 -4455.565484  -2.47  -1.94
iter:  13 23:32:38 -4454.439822  -2.44  -1.91
iter:  14 23:33:26 -4453.507444  -2.93  -1.98
iter:  15 23:34:25 -4453.400146  -2.26  -2.08
iter:  16 23:35:19 -4452.825867  -2.30  -2.23
iter:  17 23:36:07 -4452.636499  -3.54  -2.29
iter:  18 23:37:03 -4452.413735  -3.60  -2.42
iter:  19 23:37:57 -4452.476323c -3.63  -2.61
iter:  20 23:38:50 -4452.568523c -3.53  -2.62
iter:  21 23:39:40 -4452.746606c -4.08  -2.44
iter:  22 23:40:42 -4452.461069c -3.86  -2.35
iter:  23 23:41:36 -4452.504289c -4.28  -2.62
iter:  24 23:42:25 -4452.433490c -4.28  -2.50
iter:  25 23:43:18 -4452.376453c -4.44  -2.69
iter:  26 23:44:17 -4452.425845c -3.93  -2.76
iter:  27 23:45:12 -4452.444073c -3.89  -2.73
iter:  28 23:46:12 -4452.376944c -3.98  -2.67
iter:  29 23:47:27 -4452.383217c -4.92  -2.95
iter:  30 23:48:44 -4452.375594c -4.07  -2.86
iter:  31 23:49:44 -4452.350786c -4.37  -2.98
iter:  32 23:50:38 -4452.346597c -4.61  -3.10
iter:  33 23:51:38 -4452.356232c -5.17  -3.38
iter:  34 23:52:27 -4452.354166c -5.27  -3.34
iter:  35 23:53:22 -4452.352051c -5.66  -3.40
iter:  36 23:54:16 -4452.352342c -5.78  -3.55
iter:  37 23:55:05 -4452.351356c -5.58  -3.64
iter:  38 23:56:01 -4452.352178c -6.67  -3.97
iter:  39 23:57:11 -4452.351273c -6.65  -3.80
iter:  40 23:58:23 -4452.351673c -6.23  -4.06c
iter:  41 23:59:29 -4452.351500c -7.50c -4.14c

Converged after 41 iterations.

Dipole moment: (-20.948426, -17.463590, 0.004213) |e|*Ang

Energy contributions relative to reference atoms: (reference = -2556707.893378)

Kinetic:       +439.860632
Potential:     -479.946355
External:        +0.000000
XC:            -4411.089205
Entropy (-ST):   -0.728632
Local:           -0.812256
--------------------------
Free energy:   -4452.715816
Extrapolated:  -4452.351500

Showing only first 2 kpts
 Kpt  Band  Eigenvalues  Occupancy
  0   330     -0.05554    1.40870
  0   331      0.14142    0.49891
  0   332      0.19229    0.33313
  0   333      0.23769    0.22525

  1   330     -0.25522    1.89217
  1   331     -0.19856    1.81747
  1   332     -0.18322    1.79038
  1   333     -0.08410    1.52036


Fermi level: 0.03127

No gap

Forces in eV/Ang:
  0 Cu    0.02125   -0.04826   -0.15393
  1 Cu    0.06651   -0.24566   -0.18067
  2 Cu    0.07759   -0.24366   -0.15322
  3 Cu    0.11022    0.14007   -0.16648
  4 Cu    0.01767    0.03628   -0.27736
  5 Cu    0.06529   -0.09477   -0.24139
  6 Cu   -0.01625   -0.02845   -0.26990
  7 Cu    0.05495    0.03257   -0.40842
  8 Cu   -0.00059   -0.01610   -0.06041
  9 Cu    0.00191    0.02497   -0.06831
 10 Cu    0.01020    0.00638   -0.07476
 11 Cu    0.00070    0.00620   -0.09283
 12 Cu   -0.00298   -0.00538    0.07981
 13 Cu   -0.00229   -0.02592    0.06837
 14 Cu    0.01340   -0.00885    0.07714
 15 Cu   -0.00630   -0.00253    0.06362
 16 Cu   -0.00396   -0.06999    0.19979
 17 Cu    0.02961    0.04885    0.34013
 18 Cu    0.01330    0.02687    0.26435
 19 Cu    0.03369   -0.09182    0.37453
 20 Cu   -0.07506   -0.16599    0.35320
 21 Cu   -0.06558    0.21459    0.21965
 22 Cu   -0.03289   -0.01938    0.24624
 23 Cu    0.18322    0.02251    0.26763
 24 Cu    0.08764    0.17299   -0.34672
 25 Cu   -0.14328    0.04759   -0.37000
 26 Cu    0.01297    0.01821   -0.32961
 27 Cu   -0.03577    0.09304   -0.37666
 28 Cu    0.00374    0.00485   -0.08159
 29 Cu    0.01384   -0.01056   -0.06393
 30 Cu    0.00043    0.01813    0.05678
 31 Cu   -0.00307   -0.00024    0.05906
 32 Cu    0.08031    0.02867    0.24990
 33 Cu   -0.05566   -0.02595    0.39963
 34 Cu   -0.01331    0.06317    0.11310
 35 Cu    0.06448   -0.04396    0.23553
 36 Cu   -0.06675    0.04245   -0.23652
 37 Cu   -0.17905   -0.02036   -0.26958
 38 Cu    0.00370    0.06880   -0.20078
 39 Cu   -0.08263   -0.02916   -0.24990
 40 Cu    0.00302    0.00117   -0.05543
 41 Cu    0.00665    0.00298   -0.06198
 42 Cu   -0.01486    0.00906    0.06144
 43 Cu   -0.00086   -0.00648    0.09224
 44 Cu   -0.01686   -0.03827    0.27149
 45 Cu   -0.01562   -0.02161    0.32734
 46 Cu    0.13293   -0.03674    0.37746
 47 Cu   -0.11521   -0.14323    0.16822
 48 Cu    0.02585    0.01858   -0.26014
 49 Cu   -0.02546   -0.04977   -0.34175
 50 Cu   -0.01245    0.00668   -0.07436
 51 Cu   -0.00889   -0.00503    0.07221
 52 Cu   -0.06349    0.09683    0.23878
 53 Cu   -0.07794    0.24837    0.14675
 54 Cl    0.13398    0.21575   -1.11226
 55 Cl   -0.14665   -0.20969    1.12889
 56 Cl   -0.01693   -0.12712   -1.29120
 57 Cl    0.02455    0.11939    1.30745
 58 Cl    0.20905   -0.00232    1.16920
 59 Cl   -0.20444    0.00541   -1.14931
 60 Cl    0.06557   -0.18191   -0.87713
 61 Cl   -0.07716    0.16516    0.89769
 62 Cl    0.01552   -0.06965   -1.18110
 63 Cl   -0.00554    0.08270    1.14373

System changes: positions 

Initializing position-dependent things.

Density initialized from wave functions
                                              
                                              
                                              
                                              
                             Cl               
                                    Cl        
                 Cl     CCl   Cu     Cu       
          Cl       Cu     Cu    Cu            
                                              
               Cu   CCu    CCu   Cu           
                                              
                Cu    Cu     Cu               
           Cu   CCu    CCu   Cu               
                                              
            Cu    Cu    CCu   Cu     Cu       
       Cu     Cu   CCu    Cu    Cu            
                                              
               Cu   CCu    CCu   Cu           
               Cu     Cu    Cu                
                                              
           Cu   CCu    CCu   Cu               
                                              
            Cu    Cu     Cu       Cl          
       Cu     Cu   CCu     Cl                 
        Cl                                    
               Cl                             
                                              
                                              
                                              
                                              

Positions:
   0 Cu     2.917976    0.019547    9.758607    ( 0.0000,  0.0000,  0.0000)
   1 Cu     4.194653    2.283602    9.768452    ( 0.0000,  0.0000,  0.0000)
   2 Cu     0.274885    0.041031    9.793628    ( 0.0000,  0.0000,  0.0000)
   3 Cu     1.549367    2.191479    9.818161    ( 0.0000,  0.0000,  0.0000)
   4 Cu     2.881092    2.990976   12.068731    ( 0.0000,  0.0000,  0.0000)
   5 Cu     1.584080    0.742433   12.090118    ( 0.0000,  0.0000,  0.0000)
   6 Cu     5.523707    2.995512   12.073729    ( 0.0000,  0.0000,  0.0000)
   7 Cu     4.203996    0.728271   12.101155    ( 0.0000,  0.0000,  0.0000)
   8 Cu     5.513729    1.510664   14.279137    ( 0.0000,  0.0000,  0.0000)
   9 Cu     6.822465    3.760366   14.260820    ( 0.0000,  0.0000,  0.0000)
  10 Cu     2.896917    1.508014   14.269307    ( 0.0000,  0.0000,  0.0000)
  11 Cu     4.204794    3.771303   14.249841    ( 0.0000,  0.0000,  0.0000)
  12 Cu     2.889530    0.008928   16.414545    ( 0.0000,  0.0000,  0.0000)
  13 Cu     4.199107    2.285180   16.426594    ( 0.0000,  0.0000,  0.0000)
  14 Cu     0.266403    0.010047   16.421764    ( 0.0000,  0.0000,  0.0000)
  15 Cu     1.580489    2.273312   16.413556    ( 0.0000,  0.0000,  0.0000)
  16 Cu     2.877557    3.046710   18.617203    ( 0.0000,  0.0000,  0.0000)
  17 Cu     1.579596    0.773129   18.593212    ( 0.0000,  0.0000,  0.0000)
  18 Cu     5.498617    3.049689   18.618209    ( 0.0000,  0.0000,  0.0000)
  19 Cu     4.192985    0.787561   18.592338    ( 0.0000,  0.0000,  0.0000)
  20 Cu     5.501284    1.579807   20.918678    ( 0.0000,  0.0000,  0.0000)
  21 Cu     6.827508    3.765318   20.922714    ( 0.0000,  0.0000,  0.0000)
  22 Cu     2.937309    1.570325   20.920615    ( 0.0000,  0.0000,  0.0000)
  23 Cu     4.139866    3.826477   20.900815    ( 0.0000,  0.0000,  0.0000)
  24 Cu     5.518732    4.464162    9.771214    ( 0.0000,  0.0000,  0.0000)
  25 Cu     2.911558    4.499737    9.753005    ( 0.0000,  0.0000,  0.0000)
  26 Cu     4.213706    5.275657   12.066360    ( 0.0000,  0.0000,  0.0000)
  27 Cu     6.828360    5.256774   12.095508    ( 0.0000,  0.0000,  0.0000)
  28 Cu     8.131153    6.036209   14.272450    ( 0.0000,  0.0000,  0.0000)
  29 Cu     5.510985    6.040075   14.271529    ( 0.0000,  0.0000,  0.0000)
  30 Cu     5.507341    4.533519   16.408706    ( 0.0000,  0.0000,  0.0000)
  31 Cu     2.891204    4.537113   16.425939    ( 0.0000,  0.0000,  0.0000)
  32 Cu     4.194754    5.302423   18.601797    ( 0.0000,  0.0000,  0.0000)
  33 Cu     6.817557    5.315877   18.587933    ( 0.0000,  0.0000,  0.0000)
  34 Cu     8.101950    6.023187   20.931904    ( 0.0000,  0.0000,  0.0000)
  35 Cu     5.473588    6.135729   20.901667    ( 0.0000,  0.0000,  0.0000)
  36 Cu     5.547555   -0.091632    9.784677    ( 0.0000,  0.0000,  0.0000)
  37 Cu     6.880284    2.217384    9.785278    ( 0.0000,  0.0000,  0.0000)
  38 Cu     8.143135    2.998582   12.068963    ( 0.0000,  0.0000,  0.0000)
  39 Cu     6.826853    0.742722   12.084706    ( 0.0000,  0.0000,  0.0000)
  40 Cu     8.129756    1.507844   14.258684    ( 0.0000,  0.0000,  0.0000)
  41 Cu     9.439550    3.771976   14.273070    ( 0.0000,  0.0000,  0.0000)
  42 Cu     5.510355    0.005373   16.415419    ( 0.0000,  0.0000,  0.0000)
  43 Cu     6.816332    2.274032   16.437634    ( 0.0000,  0.0000,  0.0000)
  44 Cu     8.139747    3.054126   18.622987    ( 0.0000,  0.0000,  0.0000)
  45 Cu     6.807626    0.769978   18.621396    ( 0.0000,  0.0000,  0.0000)
  46 Cu     8.110825    1.542650   20.931434    ( 0.0000,  0.0000,  0.0000)
  47 Cu     9.472605    3.853661   20.869132    ( 0.0000,  0.0000,  0.0000)
  48 Cu     8.083649    4.474677    9.763572    ( 0.0000,  0.0000,  0.0000)
  49 Cu     9.441345    5.271619   12.093598    ( 0.0000,  0.0000,  0.0000)
  50 Cu    10.754297    6.035842   14.263561    ( 0.0000,  0.0000,  0.0000)
  51 Cu     8.123459    4.536550   16.419256    ( 0.0000,  0.0000,  0.0000)
  52 Cu     9.436950    5.302627   18.597137    ( 0.0000,  0.0000,  0.0000)
  53 Cu    10.745970    6.002955   20.892376    ( 0.0000,  0.0000,  0.0000)
  54 Cl     3.836748    1.770954   22.819852    ( 0.0000,  0.0000,  0.0000)
  55 Cl     7.179782    4.273118    7.856366    ( 0.0000,  0.0000,  0.0000)
  56 Cl    10.799882    4.816668   22.704956    ( 0.0000,  0.0000,  0.0000)
  57 Cl     0.218780    1.238992    7.977434    ( 0.0000,  0.0000,  0.0000)
  58 Cl     9.805874    5.777667    7.883043    ( 0.0000,  0.0000,  0.0000)
  59 Cl     1.217054    0.264923   22.803560    ( 0.0000,  0.0000,  0.0000)
  60 Cl     7.761737    5.503025   22.863058    ( 0.0000,  0.0000,  0.0000)
  61 Cl     3.251920    0.523209    7.808247    ( 0.0000,  0.0000,  0.0000)
  62 Cl     6.849469    2.506276   22.684937    ( 0.0000,  0.0000,  0.0000)
  63 Cl     4.159596    3.513394    8.015656    ( 0.0000,  0.0000,  0.0000)

Unit cell:
           periodic     x           y           z      points  spacing
  1. axis:    yes    7.851007    0.000000    0.000000    45     0.1511
  2. axis:    yes    3.925503    6.799171    0.000000    45     0.1511
  3. axis:    yes    0.000000    0.000000   30.683867   175     0.1753

  Lengths:   7.851007   7.851006  30.683867
  Angles:   90.000000  90.000000  60.000001

Effective grid spacing dv^(1/3) = 0.1666

     iter     time        total  log10-change:
                         energy  eigst   dens
iter:   1 00:01:06 -4670.561135  -0.36
iter:   2 00:02:06 -4631.295273  +0.56  -0.91
iter:   3 00:03:12 -4555.000572  +0.35  -1.01
iter:   4 00:04:06 -4610.114474  -0.57  -1.22
iter:   5 00:04:57 -4466.656088  -1.21  -1.09
iter:   6 00:05:54 -4458.996276  -2.04  -1.81
iter:   7 00:06:49 -4456.452713  -2.66  -1.86
iter:   8 00:07:39 -4453.917321  -1.85  -1.90
iter:   9 00:08:38 -4454.944656  -2.32  -2.02
iter:  10 00:09:32 -4452.632594  -2.74  -2.07
iter:  11 00:10:27 -4452.672606  -2.81  -2.27
iter:  12 00:11:18 -4452.393282c -3.27  -2.40
iter:  13 00:12:12 -4452.360131c -3.25  -2.59
iter:  14 00:13:10 -4452.351029c -3.75  -2.72
iter:  15 00:14:04 -4452.333318c -4.16  -2.87
iter:  16 00:14:58 -4452.323425c -4.49  -2.91
iter:  17 00:15:52 -4452.327829c -4.30  -2.96
iter:  18 00:16:47 -4452.344248c -4.34  -3.06
iter:  19 00:17:36 -4452.327906c -4.76  -3.06
iter:  20 00:18:35 -4452.322300c -4.79  -3.33
iter:  21 00:19:30 -4452.321762c -6.03  -3.46
iter:  22 00:20:19 -4452.321047c -6.05  -3.52
iter:  23 00:21:13 -4452.320470c -5.48  -3.64
iter:  24 00:22:17 -4452.320399c -5.89  -3.81
iter:  25 00:23:13 -4452.320389c -6.10  -3.86
iter:  26 00:24:30 -4452.320134c -6.04  -3.94
iter:  27 00:25:56 -4452.319858c -6.35  -4.16c
iter:  28 00:26:54 -4452.319876c -7.52c -4.34c

Converged after 28 iterations.

Dipole moment: (-20.618220, -19.402232, 0.008865) |e|*Ang

Energy contributions relative to reference atoms: (reference = -2556707.893378)

Kinetic:       +509.599244
Potential:     -536.190108
External:        +0.000000
XC:            -4424.690556
Entropy (-ST):   -0.501718
Local:           -0.787598
--------------------------
Free energy:   -4452.570735
Extrapolated:  -4452.319876

Showing only first 2 kpts
 Kpt  Band  Eigenvalues  Occupancy
  0   330      0.31292    1.37337
  0   331      0.52808    0.40623
  0   332      0.58492    0.25232
  0   333      0.63649    0.15873

  1   330     -0.09364    1.98447
  1   331      0.02089    1.95198
  1   332      0.18018    1.78413
  1   333      0.34962    1.20586


Fermi level: 0.39139

No gap

Forces in eV/Ang:
  0 Cu   -0.39165   -0.69961    2.44735
  1 Cu    0.12672   -1.26967    1.33491
  2 Cu    0.15580   -1.21116    1.14798
  3 Cu    0.41970    0.40739    0.27389
  4 Cu    0.02140    0.06144   -0.30508
  5 Cu    0.08671   -0.14048   -0.25736
  6 Cu   -0.02430   -0.05402   -0.30547
  7 Cu    0.08108    0.05469   -0.46805
  8 Cu   -0.00310   -0.03149   -0.07834
  9 Cu    0.00852    0.04455   -0.08892
 10 Cu    0.01362    0.00246   -0.10950
 11 Cu   -0.00694    0.00381   -0.12315
 12 Cu    0.00262   -0.00423    0.12316
 13 Cu   -0.01009   -0.04712    0.09599
 14 Cu    0.02658   -0.01877    0.11077
 15 Cu   -0.00441   -0.00595    0.08645
 16 Cu   -0.00934   -0.09520    0.20652
 17 Cu    0.01469    0.06809    0.37725
 18 Cu    0.01931    0.05274    0.29532
 19 Cu    0.06462   -0.10885    0.41754
 20 Cu   -0.18685   -0.45938   -0.29965
 21 Cu   -0.12224    1.11205   -1.14344
 22 Cu   -0.84637   -0.19546   -1.61320
 23 Cu    0.61557   -0.17129   -0.33050
 24 Cu    0.21219    0.46941    0.28306
 25 Cu   -0.37924    0.12089    0.42697
 26 Cu    0.03376    0.01663   -0.37196
 27 Cu   -0.06377    0.11066   -0.42167
 28 Cu   -0.00083    0.00164   -0.11663
 29 Cu    0.02625   -0.01666   -0.08256
 30 Cu    0.00311    0.03635    0.07930
 31 Cu    0.00258    0.00642    0.07702
 32 Cu    0.12314    0.02767    0.27581
 33 Cu   -0.08395   -0.04834    0.45806
 34 Cu    0.44282    0.78999   -2.67385
 35 Cu    0.34666   -0.77466   -1.31514
 36 Cu   -0.35242    0.77283    1.30499
 37 Cu   -0.60684    0.17901    0.32678
 38 Cu    0.01106    0.09485   -0.21335
 39 Cu   -0.12703   -0.02848   -0.28090
 40 Cu   -0.00419   -0.00348   -0.06750
 41 Cu    0.00559    0.00693   -0.08274
 42 Cu   -0.02807    0.01327    0.08406
 43 Cu    0.00680   -0.00397    0.12794
 44 Cu   -0.01886   -0.06421    0.29464
 45 Cu   -0.03615   -0.02220    0.36742
 46 Cu    0.35109   -0.08467   -0.40001
 47 Cu   -0.43071   -0.42079   -0.28098
 48 Cu    0.79640    0.18273    1.51065
 49 Cu   -0.01312   -0.06752   -0.38289
 50 Cu   -0.02651    0.01459   -0.10527
 51 Cu   -0.01066    0.00043    0.11004
 52 Cu   -0.08303    0.14315    0.24926
 53 Cu   -0.15200    1.25617   -1.22203
 54 Cl    0.95076    0.76820    0.90617
 55 Cl   -0.94218   -0.77314   -0.77626
 56 Cl    0.00767   -0.63320    0.71145
 57 Cl    0.00241    0.57104   -0.61265
 58 Cl    0.82468   -0.47205   -0.60960
 59 Cl   -0.81576    0.46971    0.63560
 60 Cl   -0.16991   -1.14208    1.98357
 61 Cl    0.11309    1.08146   -1.75434
 62 Cl    0.00917   -0.52467    0.85505
 63 Cl    0.02279    0.65237   -1.05670

System changes: positions 

Initializing position-dependent things.

Density initialized from wave functions
                                              
                                              
                                              
                                              
                             Cl               
                                    Cl        
                 Cl     CCl   Cu     Cu       
          Cl                                  
                   Cu     Cu    Cu            
               Cu    Cu     Cu                
                    Cu     Cu    Cu           
                Cu    Cu     Cu               
           Cu    Cu     Cu                    
                Cu     Cu    Cu               
            Cu    Cu     Cu                   
       Cu     Cu    Cu  Cu    Cu     Cu       
                   Cu     Cu    Cu            
               Cu    Cu     Cu                
                    Cu     Cu    Cu           
               Cu     Cu    Cu                
           Cu    Cu     Cu                    
                Cu     Cu    Cu               
            Cu    Cu     Cu                   
                                  Cl          
       Cu     Cu   CCu     Cl                 
        Cl                                    
               Cl                             
                                              
                                              
                                              
                                              

Positions:
   0 Cu     2.910386    0.002958    9.812709    ( 0.0000,  0.0000,  0.0000)
   1 Cu     4.193858    2.268143    9.813270    ( 0.0000,  0.0000,  0.0000)
   2 Cu     0.272131    0.025013    9.829318    ( 0.0000,  0.0000,  0.0000)
   3 Cu     1.558897    2.195358    9.835511    ( 0.0000,  0.0000,  0.0000)
   4 Cu     2.881360    2.992625   12.078606    ( 0.0000,  0.0000,  0.0000)
   5 Cu     1.583669    0.740989   12.097978    ( 0.0000,  0.0000,  0.0000)
   6 Cu     5.522573    2.993918   12.082298    ( 0.0000,  0.0000,  0.0000)
   7 Cu     4.204946    0.729182   12.110526    ( 0.0000,  0.0000,  0.0000)
   8 Cu     5.513610    1.509818   14.280645    ( 0.0000,  0.0000,  0.0000)
   9 Cu     6.822835    3.761245   14.262259    ( 0.0000,  0.0000,  0.0000)
  10 Cu     2.896616    1.507259   14.269265    ( 0.0000,  0.0000,  0.0000)
  11 Cu     4.204344    3.770791   14.251699    ( 0.0000,  0.0000,  0.0000)
  12 Cu     2.890231    0.009343   16.414480    ( 0.0000,  0.0000,  0.0000)
  13 Cu     4.198685    2.284230   16.425384    ( 0.0000,  0.0000,  0.0000)
  14 Cu     0.267178    0.009326   16.420820    ( 0.0000,  0.0000,  0.0000)
  15 Cu     1.581089    2.273338   16.412004    ( 0.0000,  0.0000,  0.0000)
  16 Cu     2.877215    3.047092   18.608914    ( 0.0000,  0.0000,  0.0000)
  17 Cu     1.577552    0.773719   18.583782    ( 0.0000,  0.0000,  0.0000)
  18 Cu     5.499687    3.051189   18.609148    ( 0.0000,  0.0000,  0.0000)
  19 Cu     4.194804    0.788258   18.583408    ( 0.0000,  0.0000,  0.0000)
  20 Cu     5.500750    1.575517   20.881352    ( 0.0000,  0.0000,  0.0000)
  21 Cu     6.828060    3.779544   20.878403    ( 0.0000,  0.0000,  0.0000)
  22 Cu     2.919745    1.561403   20.873579    ( 0.0000,  0.0000,  0.0000)
  23 Cu     4.148154    3.818198   20.872052    ( 0.0000,  0.0000,  0.0000)
  24 Cu     5.519610    4.468402    9.808187    ( 0.0000,  0.0000,  0.0000)
  25 Cu     2.910210    4.499709    9.798552    ( 0.0000,  0.0000,  0.0000)
  26 Cu     4.215100    5.274145   12.077241    ( 0.0000,  0.0000,  0.0000)
  27 Cu     6.826797    5.255972   12.104408    ( 0.0000,  0.0000,  0.0000)
  28 Cu     8.130615    6.035639   14.272934    ( 0.0000,  0.0000,  0.0000)
  29 Cu     5.511673    6.039784   14.273261    ( 0.0000,  0.0000,  0.0000)
  30 Cu     5.507514    4.534611   16.407398    ( 0.0000,  0.0000,  0.0000)
  31 Cu     2.891851    4.537790   16.423876    ( 0.0000,  0.0000,  0.0000)
  32 Cu     4.196206    5.301337   18.593834    ( 0.0000,  0.0000,  0.0000)
  33 Cu     6.816455    5.314877   18.578782    ( 0.0000,  0.0000,  0.0000)
  34 Cu     8.109853    6.039994   20.877050    ( 0.0000,  0.0000,  0.0000)
  35 Cu     5.481415    6.117872   20.858766    ( 0.0000,  0.0000,  0.0000)
  36 Cu     5.539543   -0.073649    9.826993    ( 0.0000,  0.0000,  0.0000)
  37 Cu     6.872198    2.225849    9.814034    ( 0.0000,  0.0000,  0.0000)
  38 Cu     8.143708    2.998340   12.076721    ( 0.0000,  0.0000,  0.0000)
  39 Cu     6.825159    0.743828   12.092081    ( 0.0000,  0.0000,  0.0000)
  40 Cu     8.128993    1.507407   14.260526    ( 0.0000,  0.0000,  0.0000)
  41 Cu     9.439105    3.771991   14.274117    ( 0.0000,  0.0000,  0.0000)
  42 Cu     5.509693    0.005554   16.413757    ( 0.0000,  0.0000,  0.0000)
  43 Cu     6.816858    2.274612   16.435745    ( 0.0000,  0.0000,  0.0000)
  44 Cu     8.139570    3.052542   18.612297    ( 0.0000,  0.0000,  0.0000)
  45 Cu     6.806336    0.771445   18.610047    ( 0.0000,  0.0000,  0.0000)
  46 Cu     8.111687    1.543294   20.886567    ( 0.0000,  0.0000,  0.0000)
  47 Cu     9.463024    3.849475   20.851469    ( 0.0000,  0.0000,  0.0000)
  48 Cu     8.101105    4.483496    9.809525    ( 0.0000,  0.0000,  0.0000)
  49 Cu     9.443080    5.271168   12.102346    ( 0.0000,  0.0000,  0.0000)
  50 Cu    10.753422    6.036522   14.263931    ( 0.0000,  0.0000,  0.0000)
  51 Cu     8.123980    4.537424   16.419173    ( 0.0000,  0.0000,  0.0000)
  52 Cu     9.437398    5.303926   18.589147    ( 0.0000,  0.0000,  0.0000)
  53 Cu    10.748819    6.019103   20.855824    ( 0.0000,  0.0000,  0.0000)
  54 Cl     3.847101    1.787350   22.902738    ( 0.0000,  0.0000,  0.0000)
  55 Cl     7.168792    4.256650    7.773990    ( 0.0000,  0.0000,  0.0000)
  56 Cl    10.803117    4.814431   22.805072    ( 0.0000,  0.0000,  0.0000)
  57 Cl     0.215342    1.239886    7.877515    ( 0.0000,  0.0000,  0.0000)
  58 Cl     9.826475    5.772751    7.800326    ( 0.0000,  0.0000,  0.0000)
  59 Cl     1.196565    0.269260   22.885716    ( 0.0000,  0.0000,  0.0000)
  60 Cl     7.765390    5.485318   22.943375    ( 0.0000,  0.0000,  0.0000)
  61 Cl     3.248367    0.541421    7.729129    ( 0.0000,  0.0000,  0.0000)
  62 Cl     6.851788    2.505096   22.779865    ( 0.0000,  0.0000,  0.0000)
  63 Cl     4.157967    3.516223    7.920081    ( 0.0000,  0.0000,  0.0000)

Unit cell:
           periodic     x           y           z      points  spacing
  1. axis:    yes    7.851007    0.000000    0.000000    45     0.1511
  2. axis:    yes    3.925503    6.799171    0.000000    45     0.1511
  3. axis:    yes    0.000000    0.000000   30.683867   175     0.1753

  Lengths:   7.851007   7.851006  30.683867
  Angles:   90.000000  90.000000  60.000001

Effective grid spacing dv^(1/3) = 0.1666

     iter     time        total  log10-change:
                         energy  eigst   dens
iter:   1 00:28:21 -4490.642101  -0.79
iter:   2 00:29:09 -4459.147197  -1.02  -1.46
iter:   3 00:30:01 -4454.864608  -2.34  -1.90
iter:   4 00:30:56 -4454.010763  -2.74  -2.09
iter:   5 00:31:42 -4453.321845  -2.31  -2.17
iter:   6 00:32:34 -4453.362437  -3.26  -2.47
iter:   7 00:33:28 -4453.408937c -3.01  -2.48
iter:   8 00:34:30 -4453.165743c -3.27  -2.55
iter:   9 00:35:18 -4453.141829c -4.28  -2.85
iter:  10 00:36:13 -4453.122374c -4.13  -2.96
iter:  11 00:37:09 -4453.126522c -4.43  -3.15
iter:  12 00:37:59 -4453.120338c -5.38  -3.21
iter:  13 00:38:53 -4453.121047c -4.99  -3.29
iter:  14 00:39:47 -4453.117345c -5.61  -3.49
iter:  15 00:40:35 -4453.117576c -6.21  -3.69
iter:  16 00:41:28 -4453.116741c -5.86  -3.77
iter:  17 00:42:21 -4453.116956c -6.63  -3.87
iter:  18 00:43:13 -4453.116921c -6.48  -3.96
iter:  19 00:44:03 -4453.117128c -6.63  -4.02c
iter:  20 00:44:59 -4453.117195c -7.24  -4.18c
iter:  21 00:45:54 -4453.116503c -6.82  -4.19c
iter:  22 00:46:42 -4453.117060c -7.44c -4.32c

Converged after 22 iterations.

Dipole moment: (-20.792309, -18.439841, 0.005139) |e|*Ang

Energy contributions relative to reference atoms: (reference = -2556707.893378)

Kinetic:       +466.008675
Potential:     -501.007306
External:        +0.000000
XC:            -4416.878512
Entropy (-ST):   -0.582359
Local:           -0.948739
--------------------------
Free energy:   -4453.408240
Extrapolated:  -4453.117060

Showing only first 2 kpts
 Kpt  Band  Eigenvalues  Occupancy
  0   330      0.09376    1.38027
  0   331      0.30894    0.41139
  0   332      0.35964    0.26988
  0   333      0.40877    0.17423

  1   330     -0.17945    1.94322
  1   331     -0.15565    1.92851
  1   332     -0.04870    1.80502
  1   333      0.10478    1.33221


Fermi level: 0.17384

No gap

Forces in eV/Ang:
  0 Cu   -0.10627   -0.27538    0.69998
  1 Cu    0.08616   -0.61408    0.35615
  2 Cu    0.10316   -0.59721    0.30634
  3 Cu    0.24038    0.24645   -0.00628
  4 Cu    0.02095    0.05088   -0.29509
  5 Cu    0.07714   -0.11949   -0.25399
  6 Cu   -0.02143   -0.04167   -0.29191
  7 Cu    0.06879    0.04449   -0.44345
  8 Cu   -0.00171   -0.02414   -0.06731
  9 Cu    0.00507    0.03471   -0.07573
 10 Cu    0.01099    0.00478   -0.08966
 11 Cu   -0.00285    0.00475   -0.10415
 12 Cu   -0.00023   -0.00477    0.09970
 13 Cu   -0.00611   -0.03664    0.07985
 14 Cu    0.02022   -0.01454    0.09156
 15 Cu   -0.00499   -0.00338    0.07432
 16 Cu   -0.00647   -0.08369    0.20688
 17 Cu    0.02218    0.05995    0.36437
 18 Cu    0.01750    0.03973    0.28455
 19 Cu    0.04958   -0.10248    0.40205
 20 Cu   -0.12386   -0.28515    0.10826
 21 Cu   -0.08528    0.53948   -0.26435
 22 Cu   -0.30973   -0.09454   -0.37047
 23 Cu    0.35533   -0.05609    0.05044
 24 Cu    0.14305    0.29394   -0.10804
 25 Cu   -0.23905    0.07994   -0.06837
 26 Cu    0.02334    0.01684   -0.35370
 27 Cu   -0.05026    0.10417   -0.40420
 28 Cu    0.00143    0.00322   -0.09649
 29 Cu    0.02001   -0.01379   -0.07093
 30 Cu    0.00171    0.02755    0.06727
 31 Cu   -0.00085    0.00292    0.06550
 32 Cu    0.10252    0.02828    0.26794
 33 Cu   -0.07041   -0.03762    0.43469
 34 Cu    0.12856    0.31637   -0.80428
 35 Cu    0.17381   -0.29305   -0.28259
 36 Cu   -0.17690    0.29115    0.28036
 37 Cu   -0.34759    0.05991   -0.05281
 38 Cu    0.00759    0.08287   -0.21002
 39 Cu   -0.10554   -0.02863   -0.27016
 40 Cu   -0.00001   -0.00092   -0.05836
 41 Cu    0.00570    0.00379   -0.07066
 42 Cu   -0.02160    0.01132    0.07187
 43 Cu    0.00263   -0.00504    0.10682
 44 Cu   -0.01943   -0.05304    0.28695
 45 Cu   -0.02571   -0.02110    0.35092
 46 Cu    0.22178   -0.05893    0.08706
 47 Cu   -0.24902   -0.25454    0.00598
 48 Cu    0.28723    0.08836    0.32799
 49 Cu   -0.01902   -0.06038   -0.36736
 50 Cu   -0.01977    0.01134   -0.08699
 51 Cu   -0.00908   -0.00256    0.08910
 52 Cu   -0.07449    0.12178    0.24969
 53 Cu   -0.10125    0.61644   -0.33342
 54 Cl    0.43075    0.47607   -0.49540
 55 Cl   -0.44028   -0.47639    0.54551
 56 Cl    0.00266   -0.30140   -0.61656
 57 Cl    0.00549    0.26955    0.65692
 58 Cl    0.50268   -0.15342    0.61918
 59 Cl   -0.49577    0.15349   -0.60722
 60 Cl    0.02553   -0.56015    0.00861
 61 Cl   -0.05267    0.53429    0.07904
 62 Cl    0.02344   -0.21297   -0.47628
 63 Cl   -0.00222    0.26828    0.37285

System changes: positions 

Initializing position-dependent things.

Density initialized from wave functions
                                              
                                              
                                              
                                              
                             Cl               
                                    Cl        
                 Cl     CCl   Cu     Cu       
          Cl       Cu     Cu    Cu            
                                              
               Cu   CCu    CCu   Cu           
                      Cu     Cu               
                Cu                            
           Cu   CCu    CCu   Cu               
                                              
            Cu    Cu    CCu   Cu     Cu       
       Cu     Cu   CCu    Cu    Cu            
                                              
               Cu   CCu    CCu   Cu           
                            Cu                
               Cu     Cu                      
           Cu   CCu    CCu   Cu               
                                              
            Cu    Cu     Cu       Cl          
       Cu     Cu   CCu     Cl                 
        Cl                                    
               Cl                             
                                              
                                              
                                              
                                              

Positions:
   0 Cu     2.907083   -0.008927    9.830030    ( 0.0000,  0.0000,  0.0000)
   1 Cu     4.204040    2.218389    9.803412    ( 0.0000,  0.0000,  0.0000)
   2 Cu     0.286267   -0.022312    9.823927    ( 0.0000,  0.0000,  0.0000)
   3 Cu     1.574617    2.217837    9.816096    ( 0.0000,  0.0000,  0.0000)
   4 Cu     2.883338    2.996349   12.036012    ( 0.0000,  0.0000,  0.0000)
   5 Cu     1.592460    0.729618   12.062008    ( 0.0000,  0.0000,  0.0000)
   6 Cu     5.521479    2.991131   12.041459    ( 0.0000,  0.0000,  0.0000)
   7 Cu     4.211364    0.733012   12.052422    ( 0.0000,  0.0000,  0.0000)
   8 Cu     5.513554    1.508119   14.271733    ( 0.0000,  0.0000,  0.0000)
   9 Cu     6.822983    3.764051   14.252511    ( 0.0000,  0.0000,  0.0000)
  10 Cu     2.898130    1.508591   14.259608    ( 0.0000,  0.0000,  0.0000)
  11 Cu     4.204521    3.771858   14.238423    ( 0.0000,  0.0000,  0.0000)
  12 Cu     2.889449    0.008379   16.425338    ( 0.0000,  0.0000,  0.0000)
  13 Cu     4.198480    2.281291   16.435330    ( 0.0000,  0.0000,  0.0000)
  14 Cu     0.268529    0.008531   16.431746    ( 0.0000,  0.0000,  0.0000)
  15 Cu     1.579901    2.272944   16.421722    ( 0.0000,  0.0000,  0.0000)
  16 Cu     2.876884    3.037624   18.640251    ( 0.0000,  0.0000,  0.0000)
  17 Cu     1.582159    0.779569   18.633391    ( 0.0000,  0.0000,  0.0000)
  18 Cu     5.500424    3.053868   18.649723    ( 0.0000,  0.0000,  0.0000)
  19 Cu     4.198205    0.776417   18.636556    ( 0.0000,  0.0000,  0.0000)
  20 Cu     5.487925    1.549294   20.933372    ( 0.0000,  0.0000,  0.0000)
  21 Cu     6.818235    3.822557   20.897647    ( 0.0000,  0.0000,  0.0000)
  22 Cu     2.905196    1.560808   20.884283    ( 0.0000,  0.0000,  0.0000)
  23 Cu     4.177653    3.821068   20.908569    ( 0.0000,  0.0000,  0.0000)
  24 Cu     5.534140    4.495630    9.756572    ( 0.0000,  0.0000,  0.0000)
  25 Cu     2.885798    4.508389    9.741971    ( 0.0000,  0.0000,  0.0000)
  26 Cu     4.216120    5.277600   12.027219    ( 0.0000,  0.0000,  0.0000)
  27 Cu     6.823046    5.268109   12.051061    ( 0.0000,  0.0000,  0.0000)
  28 Cu     8.131351    6.036602   14.261970    ( 0.0000,  0.0000,  0.0000)
  29 Cu     5.513095    6.038606   14.263716    ( 0.0000,  0.0000,  0.0000)
  30 Cu     5.507513    4.536413   16.416089    ( 0.0000,  0.0000,  0.0000)
  31 Cu     2.891060    4.537375   16.433191    ( 0.0000,  0.0000,  0.0000)
  32 Cu     4.205731    5.305570   18.631425    ( 0.0000,  0.0000,  0.0000)
  33 Cu     6.810026    5.311887   18.635700    ( 0.0000,  0.0000,  0.0000)
  34 Cu     8.115230    6.056079   20.849255    ( 0.0000,  0.0000,  0.0000)
  35 Cu     5.491770    6.105445   20.874514    ( 0.0000,  0.0000,  0.0000)
  36 Cu     5.529053   -0.061564    9.811636    ( 0.0000,  0.0000,  0.0000)
  37 Cu     6.843319    2.223190    9.777268    ( 0.0000,  0.0000,  0.0000)
  38 Cu     8.143911    3.007568   12.045618    ( 0.0000,  0.0000,  0.0000)
  39 Cu     6.815567    0.739536   12.054884    ( 0.0000,  0.0000,  0.0000)
  40 Cu     8.129816    1.507779   14.252222    ( 0.0000,  0.0000,  0.0000)
  41 Cu     9.440202    3.772384   14.265340    ( 0.0000,  0.0000,  0.0000)
  42 Cu     5.508070    0.006583   16.423328    ( 0.0000,  0.0000,  0.0000)
  43 Cu     6.816575    2.273440   16.449343    ( 0.0000,  0.0000,  0.0000)
  44 Cu     8.137658    3.048513   18.654891    ( 0.0000,  0.0000,  0.0000)
  45 Cu     6.804946    0.767578   18.660274    ( 0.0000,  0.0000,  0.0000)
  46 Cu     8.134754    1.536222   20.944436    ( 0.0000,  0.0000,  0.0000)
  47 Cu     9.446424    3.826452   20.871189    ( 0.0000,  0.0000,  0.0000)
  48 Cu     8.113335    4.483533    9.795394    ( 0.0000,  0.0000,  0.0000)
  49 Cu     9.439148    5.265122   12.053150    ( 0.0000,  0.0000,  0.0000)
  50 Cu    10.752228    6.037015   14.254119    ( 0.0000,  0.0000,  0.0000)
  51 Cu     8.122436    4.536203   16.428904    ( 0.0000,  0.0000,  0.0000)
  52 Cu     9.428854    5.315702   18.624793    ( 0.0000,  0.0000,  0.0000)
  53 Cu    10.734787    6.068369   20.859216    ( 0.0000,  0.0000,  0.0000)
  54 Cl     3.882531    1.821159   22.759630    ( 0.0000,  0.0000,  0.0000)
  55 Cl     7.133019    4.222884    7.921969    ( 0.0000,  0.0000,  0.0000)
  56 Cl    10.799912    4.784233   22.630249    ( 0.0000,  0.0000,  0.0000)
  57 Cl     0.219648    1.268088    8.056493    ( 0.0000,  0.0000,  0.0000)
  58 Cl     9.858623    5.761459    7.956645    ( 0.0000,  0.0000,  0.0000)
  59 Cl     1.165044    0.281185   22.731297    ( 0.0000,  0.0000,  0.0000)
  60 Cl     7.764208    5.443826   22.857578    ( 0.0000,  0.0000,  0.0000)
  61 Cl     3.246504    0.579568    7.823115    ( 0.0000,  0.0000,  0.0000)
  62 Cl     6.851820    2.483325   22.625823    ( 0.0000,  0.0000,  0.0000)
  63 Cl     4.159486    3.542198    8.063630    ( 0.0000,  0.0000,  0.0000)

Unit cell:
           periodic     x           y           z      points  spacing
  1. axis:    yes    7.851007    0.000000    0.000000    45     0.1511
  2. axis:    yes    3.925503    6.799171    0.000000    45     0.1511
  3. axis:    yes    0.000000    0.000000   30.683867   175     0.1753

  Lengths:   7.851007   7.851006  30.683867
  Angles:   90.000000  90.000000  60.000001

Effective grid spacing dv^(1/3) = 0.1666

     iter     time        total  log10-change:
                         energy  eigst   dens
iter:   1 00:48:01 -4636.663907  -0.27
iter:   2 00:48:54 -4572.376050  +0.35  -0.97
iter:   3 00:49:48 -4489.248003  -0.19  -1.13
iter:   4 00:50:38 -4497.952963  -1.54  -1.46
iter:   5 00:51:32 -4461.180968  -1.69  -1.40
iter:   6 00:52:27 -4456.865571  -2.33  -1.90
iter:   7 00:53:20 -4456.297491  -3.01  -1.98
iter:   8 00:54:22 -4454.057993  -1.93  -2.00
iter:   9 00:55:15 -4453.769757  -2.91  -2.30
iter:  10 00:56:10 -4453.573892  -3.00  -2.50
iter:  11 00:57:01 -4453.528821c -3.50  -2.61
iter:  12 00:57:53 -4453.537625c -4.14  -2.83
iter:  13 00:58:49 -4453.504316c -3.75  -2.89
iter:  14 00:59:54 -4453.507388c -4.26  -2.95
iter:  15 01:00:44 -4453.503919c -4.82  -3.11
iter:  16 01:01:38 -4453.501402c -4.88  -3.28
iter:  17 01:02:32 -4453.500712c -5.01  -3.50
iter:  18 01:03:27 -4453.500017c -5.70  -3.54
iter:  19 01:04:17 -4453.499669c -5.37  -3.65
iter:  20 01:05:12 -4453.499432c -6.14  -3.84
iter:  21 01:06:06 -4453.499557c -6.41  -3.95
iter:  22 01:06:56 -4453.499564c -6.32  -4.05c
iter:  23 01:07:51 -4453.499481c -7.24  -4.30c
iter:  24 01:08:45 -4453.499444c -7.35  -4.38c
iter:  25 01:09:34 -4453.499454c -7.16  -4.46c
iter:  26 01:10:28 -4453.499491c -7.75c -4.65c

Converged after 26 iterations.

Dipole moment: (-20.763945, -15.886009, 0.002630) |e|*Ang

Energy contributions relative to reference atoms: (reference = -2556707.893378)

Kinetic:       +509.383621
Potential:     -535.888820
External:        +0.000000
XC:            -4425.897978
Entropy (-ST):   -0.493654
Local:           -0.849487
--------------------------
Free energy:   -4453.746318
Extrapolated:  -4453.499491

Showing only first 2 kpts
 Kpt  Band  Eigenvalues  Occupancy
  0   330      0.38244    1.28429
  0   331      0.56396    0.45221
  0   332      0.63238    0.25691
  0   333      0.68071    0.16665

  1   330     -0.07341    1.98839
  1   331      0.05625    1.95819
  1   332      0.22194    1.79865
  1   333      0.38997    1.24935


Fermi level: 0.44091

No gap

Forces in eV/Ang:
  0 Cu   -0.23114   -0.42115    1.35761
  1 Cu    0.07657   -0.75531    0.92149
  2 Cu    0.11662   -0.77887    1.01405
  3 Cu    0.25114    0.17680    0.29471
  4 Cu   -0.00751    0.04406   -0.18756
  5 Cu    0.01126   -0.01846   -0.10113
  6 Cu    0.01007   -0.00491   -0.18734
  7 Cu    0.06637    0.03289   -0.20676
  8 Cu   -0.00794   -0.01216   -0.07352
  9 Cu   -0.00065    0.03352   -0.10694
 10 Cu    0.01745   -0.00283   -0.12021
 11 Cu   -0.00069    0.00252   -0.11900
 12 Cu    0.00494   -0.00659    0.14027
 13 Cu   -0.00102   -0.03494    0.11122
 14 Cu    0.01378   -0.00588    0.12143
 15 Cu   -0.00419   -0.00910    0.07445
 16 Cu    0.00009    0.00013    0.10237
 17 Cu   -0.00825    0.04914    0.20091
 18 Cu   -0.00855    0.00664    0.18421
 19 Cu    0.05250   -0.01733    0.20535
 20 Cu   -0.08826   -0.31942   -0.42865
 21 Cu   -0.07143    0.79533   -0.93163
 22 Cu   -0.69437   -0.17174   -1.40207
 23 Cu    0.40031   -0.12537   -0.45147
 24 Cu    0.06079    0.30066    0.39653
 25 Cu   -0.19594   -0.09744    0.70915
 26 Cu    0.01971   -0.02903   -0.20879
 27 Cu   -0.04909    0.02394   -0.21438
 28 Cu   -0.00398    0.00666   -0.13774
 29 Cu    0.01340   -0.01257   -0.07253
 30 Cu    0.00732    0.01432    0.07726
 31 Cu    0.00349    0.00833    0.09661
 32 Cu    0.04269   -0.01746    0.13806
 33 Cu   -0.07078   -0.04119    0.20618
 34 Cu    0.21390    0.39547   -1.25478
 35 Cu    0.34761   -0.77095   -1.32869
 36 Cu   -0.35014    0.77264    1.33673
 37 Cu   -0.41379    0.13555    0.46383
 38 Cu    0.00146    0.00353   -0.10568
 39 Cu   -0.04346    0.01624   -0.14089
 40 Cu   -0.00414   -0.00742   -0.09061
 41 Cu    0.00604    0.00884   -0.07104
 42 Cu   -0.01448    0.01138    0.07512
 43 Cu    0.00013   -0.00310    0.12307
 44 Cu    0.00401   -0.04172    0.18324
 45 Cu   -0.01884    0.02977    0.20147
 46 Cu    0.21401    0.08876   -0.70350
 47 Cu   -0.24570   -0.16906   -0.28905
 48 Cu    0.70540    0.17389    1.41112
 49 Cu    0.00381   -0.04986   -0.20468
 50 Cu   -0.01399    0.00380   -0.11800
 51 Cu   -0.01559    0.00419    0.12139
 52 Cu   -0.00752    0.01382    0.09344
 53 Cu   -0.11402    0.76695   -1.01306
 54 Cl    0.58235    0.34654    0.91741
 55 Cl   -0.60822   -0.36248   -0.91067
 56 Cl   -0.08697   -0.38585    0.77105
 57 Cl    0.09010    0.36387   -0.78281
 58 Cl    0.37216   -0.34816   -1.04683
 59 Cl   -0.36924    0.35110    1.03128
 60 Cl   -0.08011   -0.53245    0.75234
 61 Cl    0.09546    0.57588   -0.85313
 62 Cl   -0.00948   -0.29660    0.98280
 63 Cl    0.03227    0.29247   -0.95079

System changes: positions 

Initializing position-dependent things.

Density initialized from wave functions
                                              
                                              
                                              
                                              
                             Cl               
                                    Cl        
                 Cl     CCl   Cu     Cu       
          Cl       Cu     Cu    Cu            
                                              
               Cu   CCu    CCu   Cu           
                                              
                Cu    Cu     Cu               
           Cu   CCu    CCu   Cu               
                                              
            Cu    Cu    CCu   Cu     Cu       
       Cu     Cu   CCu    Cu    Cu            
                                              
               Cu   CCu    CCu   Cu           
               Cu     Cu    Cu                
                                              
           Cu   CCu    CCu   Cu               
                                              
            Cu    Cu     Cu       Cl          
       Cu     Cu   CCu     Cl                 
        Cl                                    
               Cl                             
                                              
                                              
                                              
                                              

Positions:
   0 Cu     2.908369   -0.004298    9.823285    ( 0.0000,  0.0000,  0.0000)
   1 Cu     4.200075    2.237765    9.807251    ( 0.0000,  0.0000,  0.0000)
   2 Cu     0.280762   -0.003882    9.826026    ( 0.0000,  0.0000,  0.0000)
   3 Cu     1.568495    2.209083    9.823657    ( 0.0000,  0.0000,  0.0000)
   4 Cu     2.882568    2.994899   12.052599    ( 0.0000,  0.0000,  0.0000)
   5 Cu     1.589036    0.734046   12.076016    ( 0.0000,  0.0000,  0.0000)
   6 Cu     5.521905    2.992216   12.057363    ( 0.0000,  0.0000,  0.0000)
   7 Cu     4.208864    0.731520   12.075050    ( 0.0000,  0.0000,  0.0000)
   8 Cu     5.513576    1.508781   14.275204    ( 0.0000,  0.0000,  0.0000)
   9 Cu     6.822926    3.762959   14.256307    ( 0.0000,  0.0000,  0.0000)
  10 Cu     2.897541    1.508072   14.263369    ( 0.0000,  0.0000,  0.0000)
  11 Cu     4.204452    3.771442   14.243593    ( 0.0000,  0.0000,  0.0000)
  12 Cu     2.889754    0.008754   16.421109    ( 0.0000,  0.0000,  0.0000)
  13 Cu     4.198560    2.282435   16.431457    ( 0.0000,  0.0000,  0.0000)
  14 Cu     0.268003    0.008841   16.427491    ( 0.0000,  0.0000,  0.0000)
  15 Cu     1.580364    2.273097   16.417937    ( 0.0000,  0.0000,  0.0000)
  16 Cu     2.877013    3.041311   18.628047    ( 0.0000,  0.0000,  0.0000)
  17 Cu     1.580364    0.777291   18.614072    ( 0.0000,  0.0000,  0.0000)
  18 Cu     5.500137    3.052825   18.633922    ( 0.0000,  0.0000,  0.0000)
  19 Cu     4.196881    0.781029   18.615858    ( 0.0000,  0.0000,  0.0000)
  20 Cu     5.492920    1.559506   20.913114    ( 0.0000,  0.0000,  0.0000)
  21 Cu     6.822061    3.805807   20.890153    ( 0.0000,  0.0000,  0.0000)
  22 Cu     2.910862    1.561040   20.880115    ( 0.0000,  0.0000,  0.0000)
  23 Cu     4.166165    3.819950   20.894348    ( 0.0000,  0.0000,  0.0000)
  24 Cu     5.528482    4.485026    9.776672    ( 0.0000,  0.0000,  0.0000)
  25 Cu     2.895305    4.505009    9.764006    ( 0.0000,  0.0000,  0.0000)
  26 Cu     4.215723    5.276254   12.046699    ( 0.0000,  0.0000,  0.0000)
[...]
  9 Cu    0.00417    0.00027   -0.00058
 10 Cu   -0.00282    0.00273   -0.00197
 11 Cu    0.00059   -0.00428   -0.00598
 12 Cu    0.00511    0.00229   -0.00425
 13 Cu   -0.00436   -0.00004    0.00204
 14 Cu   -0.00204   -0.00016    0.00927
 15 Cu    0.00187    0.00197   -0.00262
 16 Cu    0.00085   -0.00651   -0.00616
 17 Cu    0.00432   -0.00180   -0.01007
 18 Cu   -0.00445   -0.00021   -0.00673
 19 Cu    0.00419   -0.01041   -0.00808
 20 Cu   -0.00728    0.00070    0.00422
 21 Cu    0.00536   -0.00614   -0.01298
 22 Cu   -0.00049   -0.00918    0.01114
 23 Cu   -0.01021   -0.00965   -0.00301
 24 Cu    0.00781    0.00366    0.00615
 25 Cu   -0.00677    0.01335   -0.00431
 26 Cu    0.00588    0.00186    0.00429
 27 Cu   -0.00463    0.01322    0.00370
 28 Cu   -0.00539   -0.00285    0.00660
 29 Cu   -0.00486    0.00852    0.00670
 30 Cu   -0.00643   -0.00562   -0.00274
 31 Cu    0.00653    0.00660   -0.00049
 32 Cu   -0.00113   -0.00083    0.00071
 33 Cu   -0.00660   -0.00629   -0.00534
 34 Cu   -0.00804   -0.01048    0.02044
 35 Cu   -0.00511    0.00914    0.02541
 36 Cu    0.00170   -0.00032   -0.00872
 37 Cu    0.00499    0.00919    0.00942
 38 Cu   -0.00045    0.00688    0.00479
 39 Cu   -0.00026    0.00065   -0.00197
 40 Cu   -0.00675   -0.00640    0.00186
 41 Cu   -0.00228   -0.00263    0.00565
 42 Cu    0.00509   -0.00897   -0.00390
 43 Cu   -0.00084    0.00429    0.00813
 44 Cu    0.00468    0.00149   -0.01070
 45 Cu   -0.00487   -0.00096   -0.00697
 46 Cu    0.00296   -0.01499    0.01362
 47 Cu    0.01471    0.00504    0.00790
 48 Cu    0.00824    0.00956    0.00451
 49 Cu   -0.00613    0.00119    0.00794
 50 Cu    0.00133    0.00003   -0.00755
 51 Cu    0.00233   -0.00276    0.00418
 52 Cu    0.00045   -0.00396    0.00637
 53 Cu    0.00825   -0.00718    0.01840
 54 Cl   -0.02686   -0.03363   -0.00403
 55 Cl    0.02818    0.03378   -0.02094
 56 Cl    0.01338    0.00670   -0.00737
 57 Cl   -0.01190   -0.00519   -0.01636
 58 Cl    0.01771    0.00939   -0.02342
 59 Cl   -0.01926   -0.00933   -0.00213
 60 Cl   -0.00166   -0.00149   -0.00229
 61 Cl    0.00505    0.00899   -0.03696
 62 Cl    0.01944   -0.02320   -0.01376
 63 Cl   -0.02169    0.02315   -0.00731

System changes: positions 

Initializing position-dependent things.

Density initialized from wave functions
                                              
                                              
                                              
                                              
                             Cl               
                                    Cl        
                 Cl     CCl   Cu     Cu       
         Cl        Cu     Cu    Cu            
                                              
              Cu    CCu    CCu   Cu           
               Cu     Cu     Cu               
                                              
           Cu   CCu    CCu   Cu               
                                              
            Cu    Cu    CCu   Cu     Cu       
       Cu     Cu   CCu    Cu    Cu            
                                              
               Cu   CCu    CCu   Cu           
                                              
               Cu     Cu     Cu               
           Cu   CCu    CCu    Cu              
                                              
            Cu    Cu     Cu        Cl         
       Cu     Cu   CCu     Cl                 
        Cl                                    
               Cl                             
                                              
                                              
                                              
                                              

Positions:
   0 Cu     2.860538   -0.091177   10.140975    ( 0.0000,  0.0000,  0.0000)
   1 Cu     4.198137    2.169925    9.915085    ( 0.0000,  0.0000,  0.0000)
   2 Cu     0.258842   -0.074195   10.032200    ( 0.0000,  0.0000,  0.0000)
   3 Cu     1.603638    2.206228    9.942835    ( 0.0000,  0.0000,  0.0000)
   4 Cu     2.879826    2.987659   12.066383    ( 0.0000,  0.0000,  0.0000)
   5 Cu     1.573693    0.724186   12.168458    ( 0.0000,  0.0000,  0.0000)
   6 Cu     5.511947    2.976920   12.052919    ( 0.0000,  0.0000,  0.0000)
   7 Cu     4.209955    0.744585   12.160974    ( 0.0000,  0.0000,  0.0000)
   8 Cu     5.513907    1.514797   14.289760    ( 0.0000,  0.0000,  0.0000)
   9 Cu     6.819322    3.753013   14.262254    ( 0.0000,  0.0000,  0.0000)
  10 Cu     2.898965    1.512279   14.270882    ( 0.0000,  0.0000,  0.0000)
  11 Cu     4.205476    3.764799   14.222275    ( 0.0000,  0.0000,  0.0000)
  12 Cu     2.889879    0.012778   16.413877    ( 0.0000,  0.0000,  0.0000)
  13 Cu     4.201362    2.291728   16.424609    ( 0.0000,  0.0000,  0.0000)
  14 Cu     0.263444    0.008173   16.427676    ( 0.0000,  0.0000,  0.0000)
  15 Cu     1.577847    2.279178   16.409508    ( 0.0000,  0.0000,  0.0000)
  16 Cu     2.871340    3.066939   18.560049    ( 0.0000,  0.0000,  0.0000)
  17 Cu     1.564309    0.792543   18.534568    ( 0.0000,  0.0000,  0.0000)
  18 Cu     5.508295    3.067663   18.634091    ( 0.0000,  0.0000,  0.0000)
  19 Cu     4.214506    0.807509   18.529824    ( 0.0000,  0.0000,  0.0000)
  20 Cu     5.500328    1.525589   20.782262    ( 0.0000,  0.0000,  0.0000)
  21 Cu     6.821318    3.872563   20.772354    ( 0.0000,  0.0000,  0.0000)
  22 Cu     2.826096    1.541709   20.591350    ( 0.0000,  0.0000,  0.0000)
  23 Cu     4.208597    3.790792   20.765506    ( 0.0000,  0.0000,  0.0000)
  24 Cu     5.519049    4.518498    9.905129    ( 0.0000,  0.0000,  0.0000)
  25 Cu     2.870007    4.480851    9.945713    ( 0.0000,  0.0000,  0.0000)
  26 Cu     4.223040    5.254875   12.088904    ( 0.0000,  0.0000,  0.0000)
  27 Cu     6.806090    5.236664   12.157161    ( 0.0000,  0.0000,  0.0000)
  28 Cu     8.130842    6.032101   14.272853    ( 0.0000,  0.0000,  0.0000)
  29 Cu     5.511819    6.028565   14.291100    ( 0.0000,  0.0000,  0.0000)
  30 Cu     5.506625    4.530024   16.396819    ( 0.0000,  0.0000,  0.0000)
  31 Cu     2.894177    4.539880   16.397235    ( 0.0000,  0.0000,  0.0000)
  32 Cu     4.202855    5.290323   18.541116    ( 0.0000,  0.0000,  0.0000)
  33 Cu     6.810471    5.299775   18.525525    ( 0.0000,  0.0000,  0.0000)
  34 Cu     8.159318    6.135670   20.545235    ( 0.0000,  0.0000,  0.0000)
  35 Cu     5.527660    6.026768   20.578847    ( 0.0000,  0.0000,  0.0000)
  36 Cu     5.492700    0.017654   10.108043    ( 0.0000,  0.0000,  0.0000)
  37 Cu     6.811459    2.253390    9.920883    ( 0.0000,  0.0000,  0.0000)
  38 Cu     8.148929    2.977868   12.126484    ( 0.0000,  0.0000,  0.0000)
  39 Cu     6.817363    0.754710   12.145831    ( 0.0000,  0.0000,  0.0000)
  40 Cu     8.126454    1.505033   14.289617    ( 0.0000,  0.0000,  0.0000)
  41 Cu     9.442805    3.765753   14.277183    ( 0.0000,  0.0000,  0.0000)
  42 Cu     5.508912    0.016347   16.395862    ( 0.0000,  0.0000,  0.0000)
  43 Cu     6.815147    2.279938   16.464858    ( 0.0000,  0.0000,  0.0000)
  44 Cu     8.140570    3.056582   18.621121    ( 0.0000,  0.0000,  0.0000)
  45 Cu     6.797404    0.789598   18.599144    ( 0.0000,  0.0000,  0.0000)
  46 Cu     8.150779    1.562381   20.743110    ( 0.0000,  0.0000,  0.0000)
  47 Cu     9.416069    3.837614   20.744687    ( 0.0000,  0.0000,  0.0000)
  48 Cu     8.194455    4.503101   10.094692    ( 0.0000,  0.0000,  0.0000)
  49 Cu     9.456297    5.252036   12.152268    ( 0.0000,  0.0000,  0.0000)
  50 Cu    10.757190    6.036853   14.259354    ( 0.0000,  0.0000,  0.0000)
  51 Cu     8.121750    4.532511   16.415961    ( 0.0000,  0.0000,  0.0000)
  52 Cu     9.446695    5.320638   18.518907    ( 0.0000,  0.0000,  0.0000)
  53 Cu    10.761143    6.118104   20.656679    ( 0.0000,  0.0000,  0.0000)
  54 Cl     3.896688    1.799972   22.557906    ( 0.0000,  0.0000,  0.0000)
  55 Cl     7.121465    4.239392    8.130783    ( 0.0000,  0.0000,  0.0000)
  56 Cl    10.750811    4.729827   22.508813    ( 0.0000,  0.0000,  0.0000)
  57 Cl     0.269949    1.310435    8.179934    ( 0.0000,  0.0000,  0.0000)
  58 Cl     9.886334    5.830367    8.145490    ( 0.0000,  0.0000,  0.0000)
  59 Cl     1.131936    0.209564   22.543442    ( 0.0000,  0.0000,  0.0000)
  60 Cl     7.710300    5.292367   22.567901    ( 0.0000,  0.0000,  0.0000)
  61 Cl     3.310002    0.747892    8.120087    ( 0.0000,  0.0000,  0.0000)
  62 Cl     6.860302    2.363563   22.583937    ( 0.0000,  0.0000,  0.0000)
  63 Cl     4.158299    3.677417    8.104763    ( 0.0000,  0.0000,  0.0000)

Unit cell:
           periodic     x           y           z      points  spacing
  1. axis:    yes    7.851007    0.000000    0.000000    45     0.1511
  2. axis:    yes    3.925503    6.799171    0.000000    45     0.1511
  3. axis:    yes    0.000000    0.000000   30.683867   175     0.1753

  Lengths:   7.851007   7.851006  30.683867
  Angles:   90.000000  90.000000  60.000001

Effective grid spacing dv^(1/3) = 0.1666

     iter     time        total  log10-change:
                         energy  eigst   dens
iter:   1 04:28:47 -4454.916463  -4.29
iter:   2 04:29:50 -4454.915330  -5.04  -3.54
iter:   3 04:30:46 -4454.912287c -5.45  -3.49
iter:   4 04:31:37 -4454.911308c -6.19  -3.75
iter:   5 04:32:31 -4454.910894c -5.86  -3.98
iter:   6 04:33:30 -4454.910976c -6.43  -4.18c
iter:   7 04:34:40 -4454.910974c -7.39  -4.43c
iter:   8 04:35:45 -4454.911006c -7.24  -4.49c
iter:   9 04:36:33 -4454.910951c -7.46c -4.66c

Converged after 9 iterations.

Dipole moment: (-16.316596, -9.490777, -0.002110) |e|*Ang

Energy contributions relative to reference atoms: (reference = -2556707.893378)

Kinetic:       +517.749218
Potential:     -542.112275
External:        +0.000000
XC:            -4429.654073
Entropy (-ST):   -0.501286
Local:           -0.643177
--------------------------
Free energy:   -4455.161595
Extrapolated:  -4454.910951

Showing only first 2 kpts
 Kpt  Band  Eigenvalues  Occupancy
  0   330      0.26699    1.34283
  0   331      0.44065    0.52929
  0   332      0.50030    0.33083
  0   333      0.53289    0.25034

  1   330     -0.10898    1.97746
  1   331     -0.03152    1.95173
  1   332      0.20318    1.58915
  1   333      0.30038    1.18808


Fermi level: 0.33845

No gap

Forces in eV/Ang:
  0 Cu    0.00081   -0.00287    0.00293
  1 Cu    0.00085    0.00318    0.00819
  2 Cu   -0.00167   -0.01308    0.00332
  3 Cu   -0.00244    0.00482   -0.00427
  4 Cu   -0.00515   -0.00014    0.00165
  5 Cu    0.00124   -0.00282   -0.00823
  6 Cu    0.00045    0.00145   -0.00071
  7 Cu    0.00493   -0.00081   -0.00550
  8 Cu    0.00215    0.00215    0.00955
  9 Cu    0.00152    0.00194    0.00386
 10 Cu   -0.00042   -0.00034    0.00381
 11 Cu    0.00084   -0.00371    0.00228
 12 Cu    0.00270   -0.00218   -0.00867
 13 Cu   -0.00164   -0.00238   -0.00288
 14 Cu   -0.00024    0.00031   -0.00132
 15 Cu    0.00083    0.00072   -0.00588
 16 Cu   -0.00088   -0.00906   -0.00367
 17 Cu    0.00079   -0.00384   -0.00270
 18 Cu   -0.00123   -0.00077   -0.00137
 19 Cu    0.00049   -0.00776   -0.00195
 20 Cu   -0.00281   -0.00070    0.00932
 21 Cu    0.00160    0.00171   -0.00614
 22 Cu   -0.00423   -0.00422   -0.00273
 23 Cu   -0.00216   -0.00827   -0.00134
 24 Cu    0.00270    0.00172   -0.00803
 25 Cu   -0.00650    0.00962   -0.00199
 26 Cu    0.00188    0.00530   -0.00322
 27 Cu   -0.00098    0.01061   -0.00269
 28 Cu   -0.00293    0.00174    0.00933
 29 Cu   -0.00266    0.00607    0.00762
 30 Cu   -0.00205   -0.00187   -0.00882
 31 Cu    0.00232    0.00101   -0.00486
 32 Cu    0.00104   -0.00022   -0.00002
 33 Cu   -0.00706   -0.00003    0.00589
 34 Cu   -0.00554   -0.00755    0.01622
 35 Cu    0.00285   -0.00335    0.01277
 36 Cu   -0.00113    0.00175   -0.01348
 37 Cu   -0.00026    0.00968    0.00161
 38 Cu    0.00090    0.00888    0.00223
 39 Cu   -0.00063   -0.00121   -0.00100
 40 Cu   -0.00301   -0.00080    0.00547
 41 Cu   -0.00105   -0.00081    0.00600
 42 Cu    0.00247   -0.00625   -0.00800
 43 Cu   -0.00117    0.00358   -0.00153
 44 Cu    0.00594   -0.00025   -0.00260
 45 Cu   -0.00163   -0.00605    0.00131
 46 Cu    0.00553   -0.00900    0.00190
 47 Cu    0.00376   -0.00196    0.00507
 48 Cu    0.00694    0.00492    0.00651
 49 Cu   -0.00150    0.00414    0.00150
 50 Cu    0.00012   -0.00078    0.00175
 51 Cu    0.00049    0.00025   -0.00297
 52 Cu    0.00049    0.00132    0.00506
 53 Cu    0.00150    0.00812   -0.00100
 54 Cl   -0.00555   -0.01851   -0.00076
 55 Cl    0.00530    0.01690    0.00057
 56 Cl    0.01545   -0.00753    0.00613
 57 Cl   -0.01781    0.00937   -0.01006
 58 Cl    0.01508    0.01618   -0.00447
 59 Cl   -0.01477   -0.01449    0.00867
 60 Cl   -0.00808   -0.00799   -0.01224
 61 Cl    0.01217    0.01530   -0.00260
 62 Cl   -0.00395   -0.01123   -0.01719
 63 Cl    0.00371    0.01148    0.02009

Timing:                                      incl.     excl.
-------------------------------------------------------------------
Density initialized from wave functions:    97.909    97.908   0.4% |
 Symmetrize density:                         0.001     0.001   0.0% |
Forces:                                    402.310   402.310   1.7% ||
Hamiltonian:                               181.153     0.340   0.0% |
 Atomic:                                     8.364     2.276   0.0% |
  XC Correction:                             6.088     6.088   0.0% |
 Calculate atomic Hamiltonians:             38.073    38.073   0.2% |
 Communicate:                                1.529     1.529   0.0% |
 Initialize Hamiltonian:                     0.002     0.002   0.0% |
 Poisson:                                    0.092     0.092   0.0% |
 XC 3D grid:                               132.754    19.533   0.1% |
  VdW-DF integral:                         113.221     4.167   0.0% |
   Convolution:                              6.617     6.617   0.0% |
   FFT:                                      3.331     3.331   0.0% |
   gather:                                  35.122    35.122   0.2% |
   hmm1:                                     1.987     1.987   0.0% |
   hmm2:                                     4.790     4.790   0.0% |
   iFFT:                                     4.051     4.051   0.0% |
   potential:                               41.900     0.529   0.0% |
    collect:                                 6.516     6.516   0.0% |
    p1:                                     21.007    21.007   0.1% |
    p2:                                      7.557     7.557   0.0% |
    sum:                                     6.292     6.292   0.0% |
   splines:                                 11.257    11.257   0.0% |
LCAO initialization:                       251.208     0.528   0.0% |
 LCAO eigensolver:                          10.836     0.002   0.0% |
  Blacs Orbital Layouts:                     0.665     0.001   0.0% |
   General diagonalize:                      0.652     0.652   0.0% |
   Redistribute coefs:                       0.008     0.008   0.0% |
   Send coefs to domains:                    0.005     0.005   0.0% |
  Calculate projections:                     0.017     0.017   0.0% |
  Distribute overlap matrix:                 9.789     0.001   0.0% |
   Scalapack redistribute:                   0.013     0.013   0.0% |
   blocked summation:                        9.775     9.775   0.0% |
  Potential matrix:                          0.232     0.232   0.0% |
  SparseAtomicCorrection:                    0.021     0.021   0.0% |
  Sum over cells:                            0.110     0.110   0.0% |
 LCAO to grid:                             237.658   237.658   1.0% |
 Set positions (LCAO WFS):                   2.187     0.052   0.0% |
  Basic WFS set positions:                   0.003     0.003   0.0% |
  Basis functions set positions:             0.000     0.000   0.0% |
  P tci:                                     0.075     0.075   0.0% |
  ST tci:                                    0.454     0.454   0.0% |
  Scalapack redistribute:                    0.027     0.027   0.0% |
  blocked summation:                         1.417     1.417   0.0% |
  mktci:                                     0.159     0.159   0.0% |
PWDescriptor:                                0.873     0.873   0.0% |
Redistribute:                                0.063     0.063   0.0% |
SCF-cycle:                               22312.907  1088.664   4.7% |-|
 Davidson:                               15972.310  3832.369  16.4% |------|
  Apply H:                                1748.496  1722.737   7.4% |--|
   HMM T:                                   25.759    25.759   0.1% |
  Subspace diag:                          2788.579     0.092   0.0% |
   calc_h_matrix:                         2112.986   405.575   1.7% ||
    Apply H:                              1707.411  1680.746   7.2% |--|
     HMM T:                                 26.665    26.665   0.1% |
   diagonalize:                            100.172   100.172   0.4% |
   rotate_psi:                             575.330   575.330   2.5% ||
  calc. matrices:                         5980.241  2614.293  11.2% |---|
   Apply H:                               3365.948  3315.466  14.2% |-----|
    HMM T:                                  50.482    50.482   0.2% |
  diagonalize:                             538.974   538.974   2.3% ||
  rotate_psi:                             1083.651  1083.651   4.6% |-|
 Density:                                 1898.178     0.019   0.0% |
  Atomic density matrices:                   7.132     7.132   0.0% |
  Mix:                                     875.994   875.994   3.7% ||
  Multipole moments:                         0.418     0.418   0.0% |
  Pseudo density:                         1014.615  1014.597   4.3% |-|
   Symmetrize density:                       0.017     0.017   0.0% |
 Hamiltonian:                             3277.116     7.248   0.0% |
  Atomic:                                  140.764    35.384   0.2% |
   XC Correction:                          105.379   105.379   0.5% |
  Calculate atomic Hamiltonians:           736.240   736.240   3.1% ||
  Communicate:                              58.454    58.454   0.3% |
  Poisson:                                   2.093     2.093   0.0% |
  XC 3D grid:                             2332.316   339.455   1.5% ||
   VdW-DF integral:                       1992.861    78.527   0.3% |
    Convolution:                           124.645   124.645   0.5% |
    FFT:                                    66.350    66.350   0.3% |
    gather:                                739.909   739.909   3.2% ||
    hmm1:                                   39.704    39.704   0.2% |
    hmm2:                                   94.574    94.574   0.4% |
    iFFT:                                   69.642    69.642   0.3% |
    potential:                             779.506     9.496   0.0% |
     collect:                              117.306   117.306   0.5% |
     p1:                                   346.402   346.402   1.5% ||
     p2:                                   134.973   134.973   0.6% |
     sum:                                  171.330   171.330   0.7% |
    splines:                                 0.004     0.004   0.0% |
 Orthonormalize:                            76.640     0.008   0.0% |
  calc_s_matrix:                             9.402     9.402   0.0% |
  inverse-cholesky:                          3.147     3.147   0.0% |
  projections:                              50.463    50.463   0.2% |
  rotate_psi_s:                             13.620    13.620   0.1% |
Set symmetry:                                0.001     0.001   0.0% |
Other:                                     133.128   133.128   0.6% |
-------------------------------------------------------------------
Total:                                             23379.553 100.0%

Memory usage: 1.25 GiB
Date: Sun Oct  9 04:36:55 2022
