
  ___ ___ ___ _ _ _  
 |   |   |_  | | | | 
 | | | | | . | | | | 
 |__ |  _|___|_____|  22.1.0
 |___|_|             

User:   thorkong@node065.cluster
Date:   Mon Oct 17 14:45:29 2022
Arch:   x86_64
Pid:    96010
Python: 3.10.5
gpaw:   /groups/kemi/thorkong/miniconda3/envs/gpaw22/lib/python3.10/site-packages/gpaw
_gpaw:  /groups/kemi/thorkong/miniconda3/envs/gpaw22/lib/python3.10/site-packages/
        _gpaw.cpython-310-x86_64-linux-gnu.so
ase:    /groups/kemi/thorkong/miniconda3/envs/gpaw22/lib/python3.10/site-packages/ase (version 3.22.1)
numpy:  /groups/kemi/thorkong/miniconda3/envs/gpaw22/lib/python3.10/site-packages/numpy (version 1.23.0)
scipy:  /groups/kemi/thorkong/miniconda3/envs/gpaw22/lib/python3.10/site-packages/scipy (version 1.8.1)
libxc:  5.2.3
units:  Angstrom and eV
cores: 32
OpenMP: True
OMP_NUM_THREADS: 1

Input parameters:
  basis: dzp
  kpts: [4 4 1]
  mode: {ecut: 600.0,
         name: pw}
  xc: BEEF-vdW

System changes: positions, numbers, cell, pbc, initial_charges, initial_magmoms 

Initialize ...

Cu-setup:
  name: Copper
  id: f1c4d45d90492f1bbfdcb091e8418fdf
  Z: 29.0
  valence: 11
  core: 18
  charge: 0.0
  file: /groups/kemi/thorkong/miniconda3/envs/gpaw22/share/gpaw/Cu.PBE.gz
  compensation charges: gauss, rc=0.33, lmax=2
  cutoffs: 2.06(filt), 2.43(core),
  valence states:
                energy  radius
    4s(1.00)    -4.609   1.164
    4p(0.00)    -0.698   1.164
    3d(10.00)    -5.039   1.058
    *s          22.603   1.164
    *p          26.513   1.164
    *d          22.172   1.058

  LCAO basis set for Cu:
    Name: dzp
    File: /groups/kemi/thorkong/miniconda3/envs/gpaw22/share/gpaw/Cu.dzp.basis.gz
    Number of radial functions: 5
    Number of spherical harmonics: 15
      l=0, rc=8.9688 Bohr: 4s-sz confined orbital
      l=2, rc=5.1719 Bohr: 3d-sz confined orbital
      l=0, rc=5.3281 Bohr: 4s-dz split-valence wave
      l=2, rc=3.1406 Bohr: 3d-dz split-valence wave
      l=1, rc=8.9688 Bohr: p-type Gaussian polarization

Cl-setup:
  name: Chlorine
  id: 726897f06f34e53cf8e33b5885a02604
  Z: 17.0
  valence: 7
  core: 10
  charge: 0.0
  file: /groups/kemi/thorkong/miniconda3/envs/gpaw22/share/gpaw/Cl.PBE.gz
  compensation charges: gauss, rc=0.25, lmax=2
  cutoffs: 1.40(filt), 1.49(core),
  valence states:
                energy  radius
    3s(2.00)   -20.689   0.794
    3p(5.00)    -8.594   0.794
    *s           6.523   0.794
    *p          18.617   0.794
    *d           0.000   0.794

  LCAO basis set for Cl:
    Name: dzp
    File: /groups/kemi/thorkong/miniconda3/envs/gpaw22/share/gpaw/Cl.dzp.basis.gz
    Number of radial functions: 5
    Number of spherical harmonics: 13
      l=0, rc=5.1719 Bohr: 3s-sz confined orbital
      l=1, rc=6.2656 Bohr: 3p-sz confined orbital
      l=0, rc=2.8281 Bohr: 3s-dz split-valence wave
      l=1, rc=3.5156 Bohr: 3p-dz split-valence wave
      l=2, rc=6.2656 Bohr: d-type Gaussian polarization

Reference energy: -2606927.690960

Spin-paired calculation

Convergence criteria:
 Maximum [total energy] change in last 3 cyles: 0.0005 eV / electron
 Maximum integral of absolute [dens]ity change: 0.0001 electrons / valence electron
 Maximum integral of absolute [eigenst]ate change: 4e-08 eV^2 / valence electron
 Maximum number of scf [iter]ations: 333
 (Square brackets indicate name in SCF output, whereas a 'c' in
 the SCF output indicates the quantity has converged.)

Symmetries present (total): 1

  ( 1  0  0)
  ( 0  1  0)
  ( 0  0  1)

16 k-points: 4 x 4 x 1 Monkhorst-Pack grid
8 k-points in the irreducible part of the Brillouin zone
       k-points in crystal coordinates                weights
   0:     0.12500000   -0.37500000    0.00000000          2/16
   1:     0.12500000   -0.12500000    0.00000000          2/16
   2:     0.12500000    0.12500000    0.00000000          2/16
   3:     0.12500000    0.37500000    0.00000000          2/16
   4:     0.37500000   -0.37500000    0.00000000          2/16
   5:     0.37500000   -0.12500000    0.00000000          2/16
   6:     0.37500000    0.12500000    0.00000000          2/16
   7:     0.37500000    0.37500000    0.00000000          2/16

Wave functions: Plane wave expansion
  Cutoff energy: 600.000 eV
  Number of coefficients (min, max): 63070, 63184
  Pulay-stress correction: 0.000000 eV/Ang^3 (de/decut=0.000000)
  Using FFTW library
  ScaLapack parameters: grid=2x2, blocksize=64
  Wavefunction extrapolation:
    Improved wavefunction reuse through dual PAW basis 

Occupation numbers: Fermi-Dirac: width=0.1000 eV
 

Eigensolver
   Davidson(niter=2) 

Densities:
  Coarse grid: 45*48*175 grid
  Fine grid: 90*96*350 grid
  Total Charge: 0.000000 

Density mixing:
  Method: separate
  Backend: pulay
  Linear mixing parameter: 0.05
  Mixing with 5 old densities
  Damping of long wave oscillations: 50 

Hamiltonian:
  XC and Coulomb potentials evaluated on a 90*96*350 grid
  Using the BEEF-vdW Exchange-Correlation functional
  External potential:
    NoExternalPotential
 

XC parameters: BEEF-vdW with 2 nearest neighbor stencil

Memory estimate:
  Process memory now: 253.01 MiB
  Calculator: 920.59 MiB
    Density: 47.05 MiB
      Arrays: 18.85 MiB
      Localized functions: 20.94 MiB
      Mixer: 7.25 MiB
    Hamiltonian: 12.84 MiB
      Arrays: 12.33 MiB
      XC: 0.00 MiB
      Poisson: 0.00 MiB
      vbar: 0.51 MiB
    Wavefunctions: 860.70 MiB
      Arrays psit_nG: 404.93 MiB
      Eigensolver: 436.68 MiB
      Projections: 1.85 MiB
      Projectors: 2.41 MiB
      PW-descriptor: 14.84 MiB

Total number of cores used: 32
Parallelization over k-points: 8
Domain decomposition: 1 x 1 x 4
                      2 x 2 x 8 (xc only)

Number of atoms: 68
Number of atomic orbitals: 992
Number of bands in calculation: 420
Number of valence electrons: 692
Bands to converge: occupied

... initialized

Initializing position-dependent things.

Density initialized from atomic densities
Creating initial wave functions:
  420 bands from LCAO basis set

                                     
                                     
                                     
                                     
            Cl          Cl           
                                     
                Cl     Cl            
        Cl Cu  ClCu  Cl Cu           
                                     
         Cu    Cu    CCu    Cu       
       Cu    Cu    Cu     Cu         
              Cu    Cu               
           Cu    CCu    Cu           
         Cu    Cu    CCu    Cu       
                                     
       Cu    CCu   CCu    Cu         
           Cu    CCu   CCu           
                                     
         Cu    Cu    CCu    Cu       
             Cu     Cu    Cu         
       Cu     Cu    Cu               
           Cu Cl  CuCl  Cu Cl        
            Cl                       
                   Cl                
          Cl           Cl            
                                     
                                     
                                     
                                     

Positions:
   0 Cu     1.851874    1.842086   10.044767    ( 0.0000,  0.0000,  0.0000)
   1 Cu     0.572048    0.518337   11.854739    ( 0.0000,  0.0000,  0.0000)
   2 Cu     3.208369    0.549454   11.826759    ( 0.0000,  0.0000,  0.0000)
   3 Cu     1.885044    1.836608   13.699605    ( 0.0000,  0.0000,  0.0000)
   4 Cu     0.579320    0.526826   15.560947    ( 0.0000,  0.0000,  0.0000)
   5 Cu     3.185437    0.522508   15.555968    ( 0.0000,  0.0000,  0.0000)
   6 Cu     1.901068    1.854575   17.424612    ( 0.0000,  0.0000,  0.0000)
   7 Cu     0.575906    0.561899   19.206760    ( 0.0000,  0.0000,  0.0000)
   8 Cu     3.188310    0.488633   19.210481    ( 0.0000,  0.0000,  0.0000)
   9 Cu     0.574574    3.144633   11.846476    ( 0.0000,  0.0000,  0.0000)
  10 Cu     0.575916    3.143785   15.552326    ( 0.0000,  0.0000,  0.0000)
  11 Cu     0.546349    3.145891   19.206137    ( 0.0000,  0.0000,  0.0000)
  12 Cu     7.147069    1.821677   10.043621    ( 0.0000,  0.0000,  0.0000)
  13 Cu     5.794000    0.540777   11.820405    ( 0.0000,  0.0000,  0.0000)
  14 Cu     7.114080    1.831917   13.694773    ( 0.0000,  0.0000,  0.0000)
  15 Cu     5.808982    0.523918   15.556714    ( 0.0000,  0.0000,  0.0000)
  16 Cu     7.113100    1.827061   17.396972    ( 0.0000,  0.0000,  0.0000)
  17 Cu     5.807880    0.526790   19.217827    ( 0.0000,  0.0000,  0.0000)
  18 Cu     4.494064    1.763231    9.932089    ( 0.0000,  0.0000,  0.0000)
  19 Cu     4.496146    4.525263    9.931071    ( 0.0000,  0.0000,  0.0000)
  20 Cu     3.207669    3.147945   11.830838    ( 0.0000,  0.0000,  0.0000)
  21 Cu     5.791432    3.139321   11.831411    ( 0.0000,  0.0000,  0.0000)
  22 Cu     4.501104    1.833097   13.705422    ( 0.0000,  0.0000,  0.0000)
  23 Cu     4.500286    4.451342   13.700374    ( 0.0000,  0.0000,  0.0000)
  24 Cu     3.191019    3.143173   15.550169    ( 0.0000,  0.0000,  0.0000)
  25 Cu     5.806714    3.142761   15.552225    ( 0.0000,  0.0000,  0.0000)
  26 Cu     4.483820    1.848780   17.430757    ( 0.0000,  0.0000,  0.0000)
  27 Cu     4.483576    4.446716   17.420218    ( 0.0000,  0.0000,  0.0000)
  28 Cu     3.195113    3.070202   19.320757    ( 0.0000,  0.0000,  0.0000)
  29 Cu     5.840799    3.127025   19.209886    ( 0.0000,  0.0000,  0.0000)
  30 Cu     1.850636    4.467419   10.041562    ( 0.0000,  0.0000,  0.0000)
  31 Cu     1.883456    7.067453   10.032493    ( 0.0000,  0.0000,  0.0000)
  32 Cu     0.578168    5.767618   11.853682    ( 0.0000,  0.0000,  0.0000)
  33 Cu     3.207330    5.746015   11.820678    ( 0.0000,  0.0000,  0.0000)
  34 Cu     1.884398    4.451712   13.698510    ( 0.0000,  0.0000,  0.0000)
  35 Cu     1.882140    7.070634   13.694193    ( 0.0000,  0.0000,  0.0000)
  36 Cu     0.577138    5.762455   15.555937    ( 0.0000,  0.0000,  0.0000)
  37 Cu     3.190200    5.761333   15.545038    ( 0.0000,  0.0000,  0.0000)
  38 Cu     1.899950    4.455283   17.419419    ( 0.0000,  0.0000,  0.0000)
  39 Cu     1.897387    7.053708   17.430112    ( 0.0000,  0.0000,  0.0000)
  40 Cu     0.544416    5.772752   19.207193    ( 0.0000,  0.0000,  0.0000)
  41 Cu     3.197353    5.832220   19.317966    ( 0.0000,  0.0000,  0.0000)
  42 Cu     7.144990    4.448863   10.045121    ( 0.0000,  0.0000,  0.0000)
  43 Cu     7.115261    7.033008   10.044024    ( 0.0000,  0.0000,  0.0000)
  44 Cu     5.790284    5.740371   11.826573    ( 0.0000,  0.0000,  0.0000)
  45 Cu     7.115409    4.450638   13.698320    ( 0.0000,  0.0000,  0.0000)
  46 Cu     7.111993    7.067752   13.689826    ( 0.0000,  0.0000,  0.0000)
  47 Cu     5.806194    5.757852   15.551058    ( 0.0000,  0.0000,  0.0000)
  48 Cu     7.116689    4.449777   17.404260    ( 0.0000,  0.0000,  0.0000)
  49 Cu     7.119110    7.076103   17.395949    ( 0.0000,  0.0000,  0.0000)
  50 Cu     5.839650    5.752596   19.206190    ( 0.0000,  0.0000,  0.0000)
  51 Cu     4.502840    7.106124   10.040718    ( 0.0000,  0.0000,  0.0000)
  52 Cu     4.505854    7.072213   13.694900    ( 0.0000,  0.0000,  0.0000)
  53 Cu     4.482985    7.045347   17.423899    ( 0.0000,  0.0000,  0.0000)
  54 Cl     3.111134    4.453599   21.202893    ( 0.0000,  0.0000,  0.0000)
  55 Cl     4.580310    3.143724    8.048163    ( 0.0000,  0.0000,  0.0000)
  56 Cl     1.867046    5.767436    8.237027    ( 0.0000,  0.0000,  0.0000)
  57 Cl     0.561128    1.853895   21.006449    ( 0.0000,  0.0000,  0.0000)
  58 Cl     5.840224    7.039810   21.008038    ( 0.0000,  0.0000,  0.0000)
  59 Cl     7.093286    0.367959    8.057112    ( 0.0000,  0.0000,  0.0000)
  60 Cl     7.130126    5.740935    8.244573    ( 0.0000,  0.0000,  0.0000)
  61 Cl     5.824339    1.826908   21.013856    ( 0.0000,  0.0000,  0.0000)
  62 Cl     0.561128    7.353895   21.006449    ( 0.0000,  0.0000,  0.0000)
  63 Cl     1.699919    0.405738    8.070012    ( 0.0000,  0.0000,  0.0000)
  64 Cl     4.498586    5.754186    8.240800    ( 0.0000,  0.0000,  0.0000)
  65 Cl     3.192734    1.840401   21.010153    ( 0.0000,  0.0000,  0.0000)
  66 Cl     5.832282    4.433359   21.010947    ( 0.0000,  0.0000,  0.0000)
  67 Cl     1.783482    3.086587    8.153520    ( 0.0000,  0.0000,  0.0000)

Unit cell:
           periodic     x           y           z      points  spacing
  1. axis:    yes    7.851007    0.000000    0.000000    45     0.1655
  2. axis:    yes    2.617002    7.851007    0.000000    48     0.1636
  3. axis:    yes    0.000000    0.000000   30.683867   175     0.1753

  Lengths:   7.851007   8.275688  30.683867
  Angles:   90.000000  90.000000  71.565053

Effective grid spacing dv^(1/3) = 0.1710

     iter     time        total  log10-change:
                         energy  eigst   dens
iter:   1 14:51:11 -5001.476502
iter:   2 14:52:01 -4745.019318  +0.92  -0.71
iter:   3 14:52:50 -4626.902646  -0.12  -1.00
iter:   4 14:53:39 -4616.188024  -1.12  -1.26
iter:   5 14:54:27 -4602.618938  -1.45  -1.34
iter:   6 14:55:15 -4589.768346  -1.53  -1.44
iter:   7 14:56:04 -4587.035813  -2.25  -1.56
iter:   8 14:56:52 -4586.736689  -2.70  -1.60
iter:   9 14:57:40 -4586.308988  -2.15  -1.66
iter:  10 14:58:33 -4588.547064  -2.35  -1.87
iter:  11 14:59:22 -4585.892743  -3.11  -1.81
iter:  12 15:00:14 -4585.060874  -2.15  -1.94
iter:  13 15:01:03 -4584.952744  -3.23  -2.26
iter:  14 15:01:52 -4584.885482c -2.89  -2.47
iter:  15 15:02:41 -4584.812227c -3.80  -2.51
iter:  16 15:03:30 -4584.816306c -3.95  -2.70
iter:  17 15:04:19 -4584.799767c -4.59  -2.74
iter:  18 15:05:09 -4584.783914c -4.37  -2.93
iter:  19 15:05:58 -4584.781345c -4.55  -2.93
iter:  20 15:06:47 -4584.782386c -4.57  -3.02
iter:  21 15:07:36 -4584.779264c -5.56  -3.24
iter:  22 15:08:25 -4584.778403c -4.96  -3.23
iter:  23 15:09:15 -4584.777849c -5.53  -3.35
iter:  24 15:10:04 -4584.777155c -5.39  -3.42
iter:  25 15:10:54 -4584.775684c -5.85  -3.53
iter:  26 15:11:44 -4584.775582c -6.32  -3.77
iter:  27 15:12:33 -4584.775956c -7.15  -3.85
iter:  28 15:13:23 -4584.775869c -6.68  -3.88
iter:  29 15:14:13 -4584.775911c -7.20  -4.01c
iter:  30 15:15:02 -4584.775610c -6.40  -4.09c
iter:  31 15:15:52 -4584.775804c -7.48c -4.44c

Converged after 31 iterations.

Dipole moment: (-9.935134, -39.573037, 0.111177) |e|*Ang

Energy contributions relative to reference atoms: (reference = -2606927.690960)

Kinetic:       +651.771393
Potential:     -644.625329
External:        +0.000000
XC:            -4590.863144
Entropy (-ST):   -0.802256
Local:           -0.657596
--------------------------
Free energy:   -4585.176932
Extrapolated:  -4584.775804

Showing only first 2 kpts
 Kpt  Band  Eigenvalues  Occupancy
  0   344      0.10439    1.79195
  0   345      0.20633    1.51310
  0   346      0.33180    0.93967
  0   347      0.41566    0.55398

  1   344      0.23742    1.38974
  1   345      0.32213    0.98797
  1   346      0.38400    0.68922
  1   347      0.41791    0.54503


Fermi level: 0.31972

No gap

Forces in eV/Ang:
  0 Cu    0.20104   -0.17696    0.31772
  1 Cu    0.03696   -0.01594    0.20059
  2 Cu    0.02769   -0.07125    0.04676
  3 Cu    0.01815    0.00084   -0.00411
  4 Cu    0.01435    0.01791   -0.06061
  5 Cu    0.01080    0.01451   -0.05022
  6 Cu    0.01643   -0.04959   -0.35432
  7 Cu    0.02295   -0.73460   -0.49865
  8 Cu   -0.21439    0.05140   -1.20412
  9 Cu   -0.11183    0.00190    0.11190
 10 Cu   -0.01104   -0.02844   -0.06630
 11 Cu    0.23232    0.79986   -0.49174
 12 Cu   -0.33683    0.06760   -0.28710
 13 Cu   -0.06878   -0.09129    0.10050
 14 Cu   -0.03136   -0.00941    0.07967
 15 Cu   -0.02664   -0.02891   -0.03034
 16 Cu   -0.08456   -0.01189   -0.33363
 17 Cu    0.21414    0.53324   -3.02602
 18 Cu    0.13580    0.17289   -0.07301
 19 Cu    0.10808   -1.52130    1.89766
 20 Cu    0.04306    0.03548    0.04167
 21 Cu    0.06001    0.06114   -0.10447
 22 Cu    0.01060    0.01627    0.10251
 23 Cu   -0.01272   -0.01538   -0.00268
 24 Cu    0.01422    0.01983   -0.00011
 25 Cu   -0.00008    0.02223   -0.03901
 26 Cu    0.07169   -0.04540   -0.30100
 27 Cu   -0.05199   -0.03090   -0.07034
 28 Cu   -0.14061    1.47935   -1.99091
 29 Cu   -0.08388    0.21417   -1.31132
 30 Cu    0.11504   -0.49851    0.73848
 31 Cu   -0.18797    0.46871    1.13030
 32 Cu    0.07576    0.01502    0.33056
 33 Cu   -0.07436    0.04131    0.29260
 34 Cu   -0.00074   -0.02244    0.02293
 35 Cu    0.02510    0.02651    0.03251
 36 Cu    0.03542    0.01038   -0.07638
 37 Cu   -0.01456   -0.01918   -0.10100
 38 Cu   -0.05448   -0.05859    0.11976
 39 Cu    0.10856    0.08327   -0.14421
 40 Cu    0.37199   -0.26327    0.04760
 41 Cu   -0.19253   -0.23988    0.04648
 42 Cu   -0.20667   -0.77689    0.47091
 43 Cu   -0.00953    0.78609    0.44427
 44 Cu   -0.01195    0.05117    0.34163
 45 Cu    0.00949    0.03109    0.06264
 46 Cu   -0.01516   -0.01554    0.05108
 47 Cu   -0.01700   -0.00282    0.01154
 48 Cu    0.11013    0.01176   -0.11873
 49 Cu   -0.04677    0.00846   -0.29030
 50 Cu   -0.16885   -0.09182   -1.18176
 51 Cu    0.22725    0.34689    0.88943
 52 Cu   -0.00932   -0.01505    0.05746
 53 Cu   -0.05827    0.07645   -0.11092
 54 Cl   -1.93079    2.44764    0.22219
 55 Cl    1.56446   -2.04178   -0.12199
 56 Cl    0.32783   -1.62362   -1.52790
 57 Cl    0.30277    0.02556    1.19086
 58 Cl   -2.59348   -0.55337    1.62383
 59 Cl   -3.59972    3.06450   -0.34068
 60 Cl   -0.24084   -0.09257   -1.17059
 61 Cl   -0.28746    2.43078    2.07665
 62 Cl    2.56924   -4.45112    2.30366
 63 Cl    3.55153    1.10959   -0.69266
 64 Cl   -0.10257    0.89874   -2.35900
 65 Cl    0.08348   -1.34101    2.36777
 66 Cl    1.82698   -0.28061    1.43354
 67 Cl   -1.54319   -0.21741   -0.67902

System changes: positions 

Initializing position-dependent things.

Density initialized from wave functions
                                     
                                     
                                     
                                     
            Cl          Cl           
                Cl                   
                       Cl            
        Cl Cu  ClCu  Cl Cu           
               Cu    Cu              
         Cu    Cu     Cu    Cu       
             Cu    Cu     Cu         
       Cu     Cu    Cu               
           Cu    CCu    Cu           
         Cu    Cu    CCu    Cu       
                                     
       Cu    CCu    Cu    Cu         
           Cu    CCu    Cu           
               Cu    Cu     Cu       
         Cu    Cu     Cu             
             Cu     Cu    Cu         
       Cu     Cu    Cu               
           Cu Cl  CuCl  Cu Cl        
            Cl                       
                   Cl                
          Cl           Cl            
                                     
                                     
                                     
                                     

Positions:
   0 Cu     1.859013    1.835802   10.056050    ( 0.0000,  0.0000,  0.0000)
   1 Cu     0.573361    0.517771   11.861862    ( 0.0000,  0.0000,  0.0000)
   2 Cu     3.209352    0.546924   11.828419    ( 0.0000,  0.0000,  0.0000)
   3 Cu     1.885689    1.836638   13.699459    ( 0.0000,  0.0000,  0.0000)
   4 Cu     0.579830    0.527462   15.558795    ( 0.0000,  0.0000,  0.0000)
   5 Cu     3.185820    0.523023   15.554185    ( 0.0000,  0.0000,  0.0000)
   6 Cu     1.901652    1.852814   17.412030    ( 0.0000,  0.0000,  0.0000)
   7 Cu     0.576721    0.535813   19.189052    ( 0.0000,  0.0000,  0.0000)
   8 Cu     3.180697    0.490458   19.167722    ( 0.0000,  0.0000,  0.0000)
   9 Cu     0.570603    3.144700   11.850450    ( 0.0000,  0.0000,  0.0000)
  10 Cu     0.575524    3.142775   15.549972    ( 0.0000,  0.0000,  0.0000)
  11 Cu     0.554599    3.174295   19.188675    ( 0.0000,  0.0000,  0.0000)
  12 Cu     7.135108    1.824077   10.033426    ( 0.0000,  0.0000,  0.0000)
  13 Cu     5.791558    0.537535   11.823974    ( 0.0000,  0.0000,  0.0000)
  14 Cu     7.112966    1.831583   13.697602    ( 0.0000,  0.0000,  0.0000)
  15 Cu     5.808036    0.522891   15.555636    ( 0.0000,  0.0000,  0.0000)
  16 Cu     7.110097    1.826639   17.385124    ( 0.0000,  0.0000,  0.0000)
  17 Cu     5.815484    0.545726   19.110371    ( 0.0000,  0.0000,  0.0000)
  18 Cu     4.498886    1.769371    9.929496    ( 0.0000,  0.0000,  0.0000)
  19 Cu     4.499984    4.471240    9.998459    ( 0.0000,  0.0000,  0.0000)
  20 Cu     3.209198    3.149205   11.832318    ( 0.0000,  0.0000,  0.0000)
  21 Cu     5.793563    3.141492   11.827701    ( 0.0000,  0.0000,  0.0000)
  22 Cu     4.501480    1.833675   13.709062    ( 0.0000,  0.0000,  0.0000)
  23 Cu     4.499834    4.450796   13.700279    ( 0.0000,  0.0000,  0.0000)
  24 Cu     3.191524    3.143877   15.550165    ( 0.0000,  0.0000,  0.0000)
  25 Cu     5.806711    3.143550   15.550840    ( 0.0000,  0.0000,  0.0000)
  26 Cu     4.486366    1.847168   17.420068    ( 0.0000,  0.0000,  0.0000)
  27 Cu     4.481730    4.445619   17.417720    ( 0.0000,  0.0000,  0.0000)
  28 Cu     3.190120    3.122735   19.250058    ( 0.0000,  0.0000,  0.0000)
  29 Cu     5.837820    3.134630   19.163320    ( 0.0000,  0.0000,  0.0000)
  30 Cu     1.854721    4.449717   10.067786    ( 0.0000,  0.0000,  0.0000)
  31 Cu     1.876781    7.084097   10.072631    ( 0.0000,  0.0000,  0.0000)
  32 Cu     0.580858    5.768151   11.865421    ( 0.0000,  0.0000,  0.0000)
  33 Cu     3.204689    5.747482   11.831068    ( 0.0000,  0.0000,  0.0000)
  34 Cu     1.884372    4.450915   13.699324    ( 0.0000,  0.0000,  0.0000)
  35 Cu     1.883031    7.071575   13.695347    ( 0.0000,  0.0000,  0.0000)
  36 Cu     0.578396    5.762824   15.553225    ( 0.0000,  0.0000,  0.0000)
  37 Cu     3.189683    5.760652   15.541451    ( 0.0000,  0.0000,  0.0000)
  38 Cu     1.898015    4.453203   17.423672    ( 0.0000,  0.0000,  0.0000)
  39 Cu     1.901242    7.056665   17.424991    ( 0.0000,  0.0000,  0.0000)
  40 Cu     0.557626    5.763403   19.208883    ( 0.0000,  0.0000,  0.0000)
  41 Cu     3.190516    5.823702   19.319617    ( 0.0000,  0.0000,  0.0000)
  42 Cu     7.137651    4.421275   10.061843    ( 0.0000,  0.0000,  0.0000)
  43 Cu     7.114923    7.060923   10.059800    ( 0.0000,  0.0000,  0.0000)
  44 Cu     5.789860    5.742188   11.838705    ( 0.0000,  0.0000,  0.0000)
  45 Cu     7.115746    4.451742   13.700545    ( 0.0000,  0.0000,  0.0000)
  46 Cu     7.111455    7.067200   13.691640    ( 0.0000,  0.0000,  0.0000)
  47 Cu     5.805590    5.757752   15.551468    ( 0.0000,  0.0000,  0.0000)
  48 Cu     7.120600    4.450195   17.400044    ( 0.0000,  0.0000,  0.0000)
  49 Cu     7.117449    7.076404   17.385640    ( 0.0000,  0.0000,  0.0000)
  50 Cu     5.833654    5.749335   19.164225    ( 0.0000,  0.0000,  0.0000)
  51 Cu     4.510910    7.118442   10.072302    ( 0.0000,  0.0000,  0.0000)
  52 Cu     4.505523    7.071679   13.696940    ( 0.0000,  0.0000,  0.0000)
  53 Cu     4.480916    7.048062   17.419960    ( 0.0000,  0.0000,  0.0000)
  54 Cl     3.042570    4.540517   21.210783    ( 0.0000,  0.0000,  0.0000)
  55 Cl     4.635865    3.071219    8.043831    ( 0.0000,  0.0000,  0.0000)
  56 Cl     1.878687    5.709780    8.182770    ( 0.0000,  0.0000,  0.0000)
  57 Cl     0.571879    1.854803   21.048737    ( 0.0000,  0.0000,  0.0000)
  58 Cl     5.748128    7.020160   21.065702    ( 0.0000,  0.0000,  0.0000)
  59 Cl     6.965457    0.476782    8.045014    ( 0.0000,  0.0000,  0.0000)
  60 Cl     7.121573    5.737648    8.203004    ( 0.0000,  0.0000,  0.0000)
  61 Cl     5.814132    1.913227   21.087600    ( 0.0000,  0.0000,  0.0000)
  62 Cl     0.652363    7.195832   21.088254    ( 0.0000,  0.0000,  0.0000)
  63 Cl     1.826037    0.445141    8.045415    ( 0.0000,  0.0000,  0.0000)
  64 Cl     4.494943    5.786101    8.157030    ( 0.0000,  0.0000,  0.0000)
  65 Cl     3.195698    1.792781   21.094234    ( 0.0000,  0.0000,  0.0000)
  66 Cl     5.897160    4.423394   21.061853    ( 0.0000,  0.0000,  0.0000)
  67 Cl     1.728683    3.078867    8.129407    ( 0.0000,  0.0000,  0.0000)

Unit cell:
           periodic     x           y           z      points  spacing
  1. axis:    yes    7.851007    0.000000    0.000000    45     0.1655
  2. axis:    yes    2.617002    7.851007    0.000000    48     0.1636
  3. axis:    yes    0.000000    0.000000   30.683867   175     0.1753

  Lengths:   7.851007   8.275688  30.683867
  Angles:   90.000000  90.000000  71.565053

Effective grid spacing dv^(1/3) = 0.1710

     iter     time        total  log10-change:
                         energy  eigst   dens
iter:   1 15:17:12 -4600.620603  -1.13
iter:   2 15:18:02 -4591.232019  -1.68  -1.71
iter:   3 15:18:51 -4590.446525  -2.76  -2.02
iter:   4 15:19:40 -4589.726700  -3.83  -2.06
iter:   5 15:20:30 -4589.380148  -2.97  -2.20
iter:   6 15:21:19 -4589.492401  -2.68  -2.30
iter:   7 15:22:08 -4589.158969c -3.63  -2.35
iter:   8 15:22:57 -4589.176729c -3.64  -2.54
iter:   9 15:23:46 -4589.112707c -3.39  -2.55
iter:  10 15:24:35 -4589.044033c -4.24  -2.64
iter:  11 15:25:24 -4589.020411c -4.15  -2.80
iter:  12 15:26:14 -4589.041276c -4.33  -2.89
iter:  13 15:27:03 -4589.003721c -4.54  -2.83
iter:  14 15:27:52 -4588.997863c -5.28  -3.11
iter:  15 15:28:41 -4589.001830c -4.77  -3.25
iter:  16 15:29:30 -4588.989684c -5.05  -3.12
iter:  17 15:30:19 -4588.990602c -5.90  -3.65
iter:  18 15:31:08 -4588.989777c -6.13  -3.76
iter:  19 15:31:58 -4588.989734c -5.96  -3.83
iter:  20 15:32:51 -4588.990104c -6.82  -4.09c
iter:  21 15:33:40 -4588.990244c -6.22  -4.12c
iter:  22 15:34:28 -4588.990125c -7.20  -4.33c
iter:  23 15:35:18 -4588.989977c -7.69c -4.44c

Converged after 23 iterations.

Dipole moment: (-16.008944, -39.392203, 0.058226) |e|*Ang

Energy contributions relative to reference atoms: (reference = -2606927.690960)

Kinetic:       +604.876327
Potential:     -609.392727
External:        +0.000000
XC:            -4583.485584
Entropy (-ST):   -0.772776
Local:           -0.601605
--------------------------
Free energy:   -4589.376365
Extrapolated:  -4588.989977

Showing only first 2 kpts
 Kpt  Band  Eigenvalues  Occupancy
  0   344     -0.02340    1.82126
  0   345      0.10463    1.47812
  0   346      0.21740    0.95669
  0   347      0.33658    0.43564

  1   344      0.15087    1.28153
  1   345      0.20824    1.00248
  1   346      0.26750    0.71433
  1   347      0.30629    0.54753


Fermi level: 0.20874

No gap

Forces in eV/Ang:
  0 Cu    0.12893   -0.09213    0.14412
  1 Cu    0.00824    0.04942    0.21617
  2 Cu    0.05226   -0.00652    0.13393
  3 Cu    0.02099    0.00442    0.00096
  4 Cu    0.01551    0.01051   -0.07763
  5 Cu    0.00208    0.00958   -0.06860
  6 Cu   -0.04321   -0.03813   -0.31338
  7 Cu   -0.03669   -0.30505   -0.11495
  8 Cu   -0.04519    0.06464   -0.35195
  9 Cu   -0.10164   -0.06142    0.14079
 10 Cu   -0.00454   -0.01358   -0.07942
 11 Cu    0.18364    0.31737   -0.13228
 12 Cu   -0.22463    0.00097   -0.34940
 13 Cu   -0.06475   -0.00773    0.18143
 14 Cu   -0.03408   -0.00490    0.06099
 15 Cu   -0.01735   -0.02965   -0.04927
 16 Cu    0.07850    0.06266   -0.37441
 17 Cu    0.05814   -0.17878   -0.02396
 18 Cu    0.09590    0.10960   -0.00753
 19 Cu    0.07836   -0.55885    0.38029
 20 Cu    0.01110   -0.04501    0.13369
 21 Cu    0.07989   -0.02647    0.04863
 22 Cu    0.01076    0.01799    0.07533
 23 Cu   -0.00682   -0.02576    0.01374
 24 Cu    0.00398    0.02817   -0.01921
 25 Cu    0.00247    0.03195   -0.04874
 26 Cu   -0.02696    0.01824   -0.37761
 27 Cu   -0.05155    0.03458   -0.19232
 28 Cu   -0.09105    0.53964   -0.31434
 29 Cu   -0.10524    0.12251   -0.62450
 30 Cu    0.10471   -0.22978    0.39614
 31 Cu   -0.07317    0.20206    0.11474
 32 Cu    0.01536   -0.00897    0.25243
 33 Cu   -0.05322    0.04402    0.24020
 34 Cu   -0.00172   -0.03202    0.03357
 35 Cu    0.01915    0.02971    0.04383
 36 Cu    0.03920    0.00181   -0.06252
 37 Cu   -0.01364   -0.02323   -0.07829
 38 Cu   -0.07158    0.02670   -0.05570
 39 Cu    0.11939   -0.02964   -0.23944
 40 Cu    0.24002   -0.02865    0.22013
 41 Cu   -0.11515   -0.13595    0.00150
 42 Cu   -0.16846   -0.32610    0.13170
 43 Cu    0.01807    0.32098    0.10324
 44 Cu    0.02783    0.05277    0.27415
 45 Cu    0.00535    0.01833    0.07544
 46 Cu   -0.01556   -0.00533    0.06735
 47 Cu   -0.02230   -0.00940   -0.00200
 48 Cu    0.13254    0.05003   -0.20020
 49 Cu   -0.03082   -0.07372   -0.31126
 50 Cu   -0.10612   -0.02335   -0.36916
 51 Cu    0.07312    0.01641    0.31879
 52 Cu   -0.00428   -0.00574    0.06923
 53 Cu   -0.08304    0.02572   -0.18743
 54 Cl   -1.26035    1.40728   -0.14654
 55 Cl    1.05272   -1.25320    0.13751
 56 Cl    0.22813   -0.52352   -0.84509
 57 Cl    0.13557   -0.00327    0.50886
 58 Cl   -1.67360   -0.61678    0.76982
 59 Cl   -1.90684    1.92628    0.30786
 60 Cl   -0.10157   -0.02133   -0.51504
 61 Cl   -0.20261    0.33580    1.05205
 62 Cl    1.63899   -1.90898    0.04308
 63 Cl    1.88756    0.94094   -0.44793
 64 Cl   -0.06464   -0.01984   -0.97810
 65 Cl    0.12299   -0.16106    0.89542
 66 Cl    1.25151    0.53057    0.85036
 67 Cl   -1.12494   -0.50422   -0.54006

System changes: positions 

Initializing position-dependent things.

Density initialized from wave functions
                                     
                                     
                                     
                                     
            Cl          Cl           
                Cl                   
                       Cl            
        Cl Cu  ClCu  Cl Cu           
               Cu    Cu     Cu       
         Cu    Cu     Cu             
             Cu    Cu     Cu         
       Cu     Cu    Cu               
           Cu    CCu    Cu           
         Cu    Cu    CCu    Cu       
                                     
       Cu    CCu    Cu    Cu         
           Cu    CCu    Cu           
               Cu    Cu     Cu       
         Cu    Cu     Cu             
       Cu    Cu     Cu    Cu         
              Cu    Cu               
           Cu Cl  CuCl  Cu Cl        
            Cl                       
                   Cl                
           Cl          Cl            
                                     
                                     
                                     
                                     

Positions:
   0 Cu     1.868800    1.829500   10.065056    ( 0.0000,  0.0000,  0.0000)
   1 Cu     0.573484    0.523456   11.881110    ( 0.0000,  0.0000,  0.0000)
   2 Cu     3.214438    0.547699   11.841956    ( 0.0000,  0.0000,  0.0000)
   3 Cu     1.887585    1.837099   13.699649    ( 0.0000,  0.0000,  0.0000)
   4 Cu     0.581211    0.528229   15.551645    ( 0.0000,  0.0000,  0.0000)
   5 Cu     3.185821    0.523759   15.547797    ( 0.0000,  0.0000,  0.0000)
   6 Cu     1.896629    1.849714   17.385448    ( 0.0000,  0.0000,  0.0000)
   7 Cu     0.572269    0.518040   19.186968    ( 0.0000,  0.0000,  0.0000)
   8 Cu     3.180259    0.496392   19.154631    ( 0.0000,  0.0000,  0.0000)
   9 Cu     0.561917    3.138007   11.863375    ( 0.0000,  0.0000,  0.0000)
  10 Cu     0.575262    3.141895   15.542747    ( 0.0000,  0.0000,  0.0000)
  11 Cu     0.569663    3.192045   19.184569    ( 0.0000,  0.0000,  0.0000)
  12 Cu     7.117777    1.822777   10.001544    ( 0.0000,  0.0000,  0.0000)
  13 Cu     5.785974    0.538596   11.841539    ( 0.0000,  0.0000,  0.0000)
  14 Cu     7.109926    1.831247   13.702553    ( 0.0000,  0.0000,  0.0000)
  15 Cu     5.806710    0.520280   15.550930    ( 0.0000,  0.0000,  0.0000)
  16 Cu     7.120360    1.833674   17.351501    ( 0.0000,  0.0000,  0.0000)
  17 Cu     5.817330    0.515271   19.170694    ( 0.0000,  0.0000,  0.0000)
  18 Cu     4.506452    1.777649    9.930198    ( 0.0000,  0.0000,  0.0000)
  19 Cu     4.506226    4.442331   10.000199    ( 0.0000,  0.0000,  0.0000)
  20 Cu     3.209505    3.143591   11.845935    ( 0.0000,  0.0000,  0.0000)
  21 Cu     5.800970    3.137353   11.835141    ( 0.0000,  0.0000,  0.0000)
  22 Cu     4.502426    1.835286   13.715092    ( 0.0000,  0.0000,  0.0000)
  23 Cu     4.499360    4.448325   13.701823    ( 0.0000,  0.0000,  0.0000)
  24 Cu     3.191660    3.146516   15.548086    ( 0.0000,  0.0000,  0.0000)
  25 Cu     5.806980    3.146550   15.546371    ( 0.0000,  0.0000,  0.0000)
  26 Cu     4.481954    1.850088   17.385420    ( 0.0000,  0.0000,  0.0000)
  27 Cu     4.477227    4.450007   17.398348    ( 0.0000,  0.0000,  0.0000)
  28 Cu     3.183180    3.150436   19.257401    ( 0.0000,  0.0000,  0.0000)
  29 Cu     5.828164    3.143449   19.122932    ( 0.0000,  0.0000,  0.0000)
  30 Cu     1.863673    4.435189   10.095346    ( 0.0000,  0.0000,  0.0000)
  31 Cu     1.872763    7.096241   10.061559    ( 0.0000,  0.0000,  0.0000)
  32 Cu     0.580947    5.766868   11.885894    ( 0.0000,  0.0000,  0.0000)
  33 Cu     3.200470    5.751392   11.851006    ( 0.0000,  0.0000,  0.0000)
  34 Cu     1.884201    4.447912   13.702484    ( 0.0000,  0.0000,  0.0000)
  35 Cu     1.884584    7.074243   13.699419    ( 0.0000,  0.0000,  0.0000)
  36 Cu     0.581906    5.762804   15.548040    ( 0.0000,  0.0000,  0.0000)
  37 Cu     3.188509    5.758534   15.535070    ( 0.0000,  0.0000,  0.0000)
  38 Cu     1.891393    4.457313   17.415148    ( 0.0000,  0.0000,  0.0000)
  39 Cu     1.911919    7.051723   17.402050    ( 0.0000,  0.0000,  0.0000)
  40 Cu     0.575893    5.765774   19.231741    ( 0.0000,  0.0000,  0.0000)
  41 Cu     3.182045    5.813961   19.318812    ( 0.0000,  0.0000,  0.0000)
  42 Cu     7.123698    4.402102   10.066319    ( 0.0000,  0.0000,  0.0000)
  43 Cu     7.117079    7.079350   10.061747    ( 0.0000,  0.0000,  0.0000)
  44 Cu     5.793123    5.746840   11.861301    ( 0.0000,  0.0000,  0.0000)
  45 Cu     7.116129    4.453081   13.707415    ( 0.0000,  0.0000,  0.0000)
  46 Cu     7.110084    7.066946   13.697874    ( 0.0000,  0.0000,  0.0000)
  47 Cu     5.803528    5.756792   15.551011    ( 0.0000,  0.0000,  0.0000)
  48 Cu     7.132668    4.455370   17.380825    ( 0.0000,  0.0000,  0.0000)
  49 Cu     7.115083    7.068242   17.357957    ( 0.0000,  0.0000,  0.0000)
  50 Cu     5.825669    5.748715   19.148805    ( 0.0000,  0.0000,  0.0000)
  51 Cu     4.514106    7.113007   10.088344    ( 0.0000,  0.0000,  0.0000)
  52 Cu     4.505253    7.071369   13.703246    ( 0.0000,  0.0000,  0.0000)
  53 Cu     4.473132    7.049259   17.401961    ( 0.0000,  0.0000,  0.0000)
  54 Cl     2.946180    4.642079   21.190288    ( 0.0000,  0.0000,  0.0000)
  55 Cl     4.717380    2.977910    8.061264    ( 0.0000,  0.0000,  0.0000)
  56 Cl     1.896585    5.686825    8.122989    ( 0.0000,  0.0000,  0.0000)
  57 Cl     0.580271    1.853917   21.079102    ( 0.0000,  0.0000,  0.0000)
  58 Cl     5.620748    6.964848   21.115334    ( 0.0000,  0.0000,  0.0000)
  59 Cl     6.833731    0.621742    8.085449    ( 0.0000,  0.0000,  0.0000)
  60 Cl     7.115578    5.737262    8.171548    ( 0.0000,  0.0000,  0.0000)
  61 Cl     5.798159    1.899063   21.158392    ( 0.0000,  0.0000,  0.0000)
  62 Cl     0.776498    7.081578   21.045021    ( 0.0000,  0.0000,  0.0000)
  63 Cl     1.956675    0.524004    8.011293    ( 0.0000,  0.0000,  0.0000)
  64 Cl     4.490074    5.765265    8.100120    ( 0.0000,  0.0000,  0.0000)
  65 Cl     3.207286    1.803216   21.142005    ( 0.0000,  0.0000,  0.0000)
  66 Cl     5.994751    4.486707   21.124168    ( 0.0000,  0.0000,  0.0000)
  67 Cl     1.638901    3.028764    8.085020    ( 0.0000,  0.0000,  0.0000)

Unit cell:
           periodic     x           y           z      points  spacing
  1. axis:    yes    7.851007    0.000000    0.000000    45     0.1655
  2. axis:    yes    2.617002    7.851007    0.000000    48     0.1636
  3. axis:    yes    0.000000    0.000000   30.683867   175     0.1753

  Lengths:   7.851007   8.275688  30.683867
  Angles:   90.000000  90.000000  71.565053

Effective grid spacing dv^(1/3) = 0.1710

     iter     time        total  log10-change:
                         energy  eigst   dens
iter:   1 15:36:34 -4599.437122  -1.36
iter:   2 15:37:23 -4593.500809  -1.78  -1.75
iter:   3 15:38:12 -4591.924858  -2.83  -2.00
iter:   4 15:39:01 -4591.466987  -3.38  -2.18
iter:   5 15:39:50 -4591.188950  -3.27  -2.32
iter:   6 15:40:40 -4591.127906c -2.98  -2.49
iter:   7 15:41:29 -4591.089993c -4.05  -2.65
iter:   8 15:42:18 -4591.139614c -3.81  -2.78
iter:   9 15:43:07 -4591.145909c -4.44  -2.70
iter:  10 15:43:57 -4591.091335c -4.22  -2.73
iter:  11 15:44:58 -4591.086124c -4.87  -2.93
iter:  12 15:46:08 -4591.056450c -4.33  -2.99
iter:  13 15:47:26 -4591.058353c -5.63  -3.25
iter:  14 15:48:35 -4591.054937c -4.91  -3.31
iter:  15 15:49:26 -4591.054685c -5.97  -3.51
iter:  16 15:50:36 -4591.053890c -5.98  -3.56
iter:  17 15:51:28 -4591.055904c -5.77  -3.69
iter:  18 15:52:32 -4591.055224c -5.84  -3.54
iter:  19 15:53:28 -4591.054231c -6.29  -3.78
iter:  20 15:54:20 -4591.054205c -6.76  -4.09c
iter:  21 15:55:16 -4591.053836c -6.31  -4.17c
iter:  22 15:56:22 -4591.053908c -7.47c -4.46c

Converged after 22 iterations.

Dipole moment: (-20.429459, -36.573937, 0.049323) |e|*Ang

Energy contributions relative to reference atoms: (reference = -2606927.690960)

Kinetic:       +586.072061
Potential:     -595.829385
External:        +0.000000
XC:            -4580.294736
Entropy (-ST):   -0.770888
Local:           -0.616404
--------------------------
Free energy:   -4591.439352
Extrapolated:  -4591.053908

Showing only first 2 kpts
 Kpt  Band  Eigenvalues  Occupancy
  0   344     -0.07131    1.81524
  0   345      0.07031    1.40896
  0   346      0.15867    0.99259
  0   347      0.28425    0.43829

  1   344      0.11607    1.20271
  1   345      0.14990    1.03639
  1   346      0.19242    0.82560
  1   347      0.21266    0.72952


Fermi level: 0.15718

No gap

Forces in eV/Ang:
  0 Cu    0.06904   -0.03153    0.09176
  1 Cu   -0.03523    0.02806    0.05970
  2 Cu    0.02699   -0.01230    0.08960
  3 Cu    0.01622    0.00487    0.02873
  4 Cu    0.01026   -0.00383   -0.10732
  5 Cu   -0.00568    0.00151   -0.08248
  6 Cu   -0.02401   -0.00670   -0.12060
  7 Cu   -0.00861   -0.05996   -0.04877
  8 Cu   -0.01657    0.03049   -0.02659
  9 Cu   -0.08496   -0.07322    0.05055
 10 Cu    0.01572    0.00828   -0.10771
 11 Cu    0.04941    0.07268   -0.01613
 12 Cu   -0.03486    0.16159    0.02647
 13 Cu    0.00672   -0.01894    0.10847
 14 Cu   -0.02864    0.00123    0.06546
 15 Cu   -0.00104   -0.01729   -0.05354
 16 Cu   -0.03101   -0.06013   -0.05534
 17 Cu   -0.02069    0.18022   -0.35818
 18 Cu   -0.02485   -0.06079    0.27775
 19 Cu    0.02031   -0.29502    0.16405
 20 Cu    0.03091   -0.03261    0.09252
 21 Cu    0.04735   -0.01920    0.07272
 22 Cu    0.00963    0.01809    0.06432
 23 Cu   -0.00036   -0.01830    0.02002
 24 Cu   -0.01531    0.02871   -0.05440
 25 Cu    0.00136    0.03408   -0.05812
 26 Cu    0.05769   -0.08131   -0.06225
 27 Cu   -0.05797    0.03601   -0.12081
 28 Cu   -0.01438    0.30515   -0.16460
 29 Cu   -0.04875   -0.00135    0.02247
 30 Cu    0.04457   -0.05703    0.00700
 31 Cu   -0.01066    0.03271   -0.07259
 32 Cu   -0.00284    0.00792    0.08338
 33 Cu   -0.02400    0.03357    0.08118
 34 Cu   -0.00134   -0.02682    0.02846
 35 Cu    0.00478    0.01594    0.04701
 36 Cu    0.03720   -0.00127   -0.08430
 37 Cu   -0.01066   -0.02125   -0.08707
 38 Cu   -0.03625    0.00128   -0.07242
 39 Cu   -0.01906    0.05597   -0.11249
 40 Cu    0.03053   -0.28632   -0.20183
 41 Cu    0.04529    0.05972   -0.33624
 42 Cu   -0.06011   -0.06835    0.01532
 43 Cu    0.01219    0.07047    0.00866
 44 Cu    0.02145    0.01019    0.11770
 45 Cu   -0.00113    0.00602    0.07185
 46 Cu   -0.00692   -0.00098    0.08036
 47 Cu   -0.02297   -0.01031   -0.04402
 48 Cu    0.10111    0.06726   -0.08388
 49 Cu    0.04550    0.01122   -0.06836
 50 Cu   -0.04230   -0.01592   -0.20143
 51 Cu    0.00641   -0.05204   -0.03410
 52 Cu   -0.00075   -0.00500    0.06380
 53 Cu   -0.02261    0.02679   -0.09748
 54 Cl   -0.61922    0.63952    0.06620
 55 Cl    0.41656   -0.58179   -0.02999
 56 Cl    0.05992   -0.10122   -0.43494
 57 Cl   -0.00309    0.00592    0.22888
 58 Cl   -0.80549    0.18707    0.46576
 59 Cl   -0.70587    0.78559    0.21260
 60 Cl    0.02133    0.00060   -0.22380
 61 Cl   -0.00925    0.47273    0.59387
 62 Cl    0.68676   -1.31862    0.38920
 63 Cl    0.83355    0.10596   -0.27914
 64 Cl   -0.01457    0.16618   -0.57364
 65 Cl    0.07228   -0.12952    0.53556
 66 Cl    0.71471   -0.18716    0.46382
 67 Cl   -0.64552   -0.01539   -0.35297

System changes: positions 

Initializing position-dependent things.

Density initialized from wave functions
                                     
                                     
                                     
                                     
            Cl          Cl           
                Cl                   
                       Cl            
        Cl Cu  ClCu  Cl Cu           
               Cu    Cu              
         Cu    Cu     Cu    Cu       
             Cu    Cu     Cu         
       Cu     Cu    Cu               
           Cu    CCu    Cu           
         Cu    Cu    CCu    Cu       
                                     
       Cu    CCu    Cu    Cu         
           Cu    CCu    Cu           
               Cu    Cu     Cu       
         Cu     Cu    Cu             
       Cu    CCu    Cu    Cu         
                                     
           Cu Cl  CuCl  Cu Cl        
                                     
           Cl      Cl                
           Cl          Cl            
                                     
                                     
                                     
                                     

Positions:
   0 Cu     1.879686    1.825607   10.077062    ( 0.0000,  0.0000,  0.0000)
   1 Cu     0.566922    0.530482   11.893846    ( 0.0000,  0.0000,  0.0000)
   2 Cu     3.220182    0.547384   11.860745    ( 0.0000,  0.0000,  0.0000)
   3 Cu     1.890591    1.838057   13.704574    ( 0.0000,  0.0000,  0.0000)
   4 Cu     0.583119    0.527502   15.532484    ( 0.0000,  0.0000,  0.0000)
   5 Cu     3.184658    0.523979   15.532826    ( 0.0000,  0.0000,  0.0000)
   6 Cu     1.890505    1.848499   17.363095    ( 0.0000,  0.0000,  0.0000)
   7 Cu     0.568775    0.516667   19.188273    ( 0.0000,  0.0000,  0.0000)
   8 Cu     3.181715    0.502539   19.170043    ( 0.0000,  0.0000,  0.0000)
   9 Cu     0.546964    3.123402   11.874129    ( 0.0000,  0.0000,  0.0000)
  10 Cu     0.578005    3.143534   15.523611    ( 0.0000,  0.0000,  0.0000)
  11 Cu     0.578541    3.194194   19.190432    ( 0.0000,  0.0000,  0.0000)
  12 Cu     7.112630    1.847784   10.000359    ( 0.0000,  0.0000,  0.0000)
  13 Cu     5.786489    0.537689   11.863813    ( 0.0000,  0.0000,  0.0000)
  14 Cu     7.104717    1.831522   13.713583    ( 0.0000,  0.0000,  0.0000)
  15 Cu     5.806604    0.517061   15.540965    ( 0.0000,  0.0000,  0.0000)
  16 Cu     7.120608    1.826447   17.337046    ( 0.0000,  0.0000,  0.0000)
  17 Cu     5.810193    0.523435   19.194439    ( 0.0000,  0.0000,  0.0000)
  18 Cu     4.502270    1.766995    9.978087    ( 0.0000,  0.0000,  0.0000)
  19 Cu     4.509637    4.413931    9.989431    ( 0.0000,  0.0000,  0.0000)
  20 Cu     3.213875    3.135437   11.865341    ( 0.0000,  0.0000,  0.0000)
  21 Cu     5.810271    3.131434   11.852019    ( 0.0000,  0.0000,  0.0000)
  22 Cu     4.504149    1.838538   13.725853    ( 0.0000,  0.0000,  0.0000)
  23 Cu     4.499389    4.444712   13.705757    ( 0.0000,  0.0000,  0.0000)
  24 Cu     3.188874    3.151828   15.538304    ( 0.0000,  0.0000,  0.0000)
  25 Cu     5.807304    3.152835   15.535906    ( 0.0000,  0.0000,  0.0000)
  26 Cu     4.488498    1.838550   17.368784    ( 0.0000,  0.0000,  0.0000)
  27 Cu     4.467039    4.458193   17.372761    ( 0.0000,  0.0000,  0.0000)
  28 Cu     3.181166    3.180940   19.273233    ( 0.0000,  0.0000,  0.0000)
  29 Cu     5.818311    3.142024   19.138893    ( 0.0000,  0.0000,  0.0000)
  30 Cu     1.871945    4.430658   10.091350    ( 0.0000,  0.0000,  0.0000)
  31 Cu     1.873379    7.096483   10.022507    ( 0.0000,  0.0000,  0.0000)
  32 Cu     0.578964    5.767417   11.900356    ( 0.0000,  0.0000,  0.0000)
  33 Cu     3.196483    5.757531   11.865683    ( 0.0000,  0.0000,  0.0000)
  34 Cu     1.883931    4.442836   13.707878    ( 0.0000,  0.0000,  0.0000)
  35 Cu     1.885424    7.077309   13.708028    ( 0.0000,  0.0000,  0.0000)
  36 Cu     0.588625    5.762374   15.533730    ( 0.0000,  0.0000,  0.0000)
  37 Cu     3.186613    5.754634   15.520372    ( 0.0000,  0.0000,  0.0000)
  38 Cu     1.884105    4.460192   17.397619    ( 0.0000,  0.0000,  0.0000)
  39 Cu     1.910369    7.057555   17.378071    ( 0.0000,  0.0000,  0.0000)
  40 Cu     0.579939    5.724412   19.205432    ( 0.0000,  0.0000,  0.0000)
  41 Cu     3.190454    5.825278   19.261708    ( 0.0000,  0.0000,  0.0000)
  42 Cu     7.112918    4.399694   10.060878    ( 0.0000,  0.0000,  0.0000)
  43 Cu     7.120072    7.081656   10.054835    ( 0.0000,  0.0000,  0.0000)
  44 Cu     5.798101    5.749159   11.882001    ( 0.0000,  0.0000,  0.0000)
  45 Cu     7.115885    4.453929   13.720541    ( 0.0000,  0.0000,  0.0000)
  46 Cu     7.108753    7.067009   13.712423    ( 0.0000,  0.0000,  0.0000)
  47 Cu     5.799318    5.754794   15.543298    ( 0.0000,  0.0000,  0.0000)
  48 Cu     7.151552    4.468162   17.362416    ( 0.0000,  0.0000,  0.0000)
  49 Cu     7.122747    7.067008   17.342585    ( 0.0000,  0.0000,  0.0000)
  50 Cu     5.819217    5.747717   19.133877    ( 0.0000,  0.0000,  0.0000)
  51 Cu     4.511690    7.095347   10.070315    ( 0.0000,  0.0000,  0.0000)
  52 Cu     4.505221    7.070733   13.714937    ( 0.0000,  0.0000,  0.0000)
  53 Cu     4.467771    7.052583   17.381570    ( 0.0000,  0.0000,  0.0000)
  54 Cl     2.848058    4.734900   21.189413    ( 0.0000,  0.0000,  0.0000)
  55 Cl     4.783956    2.889373    8.065016    ( 0.0000,  0.0000,  0.0000)
  56 Cl     1.906281    5.694845    8.060406    ( 0.0000,  0.0000,  0.0000)
  57 Cl     0.576599    1.854062   21.103765    ( 0.0000,  0.0000,  0.0000)
  58 Cl     5.494063    6.987369   21.177446    ( 0.0000,  0.0000,  0.0000)
  59 Cl     6.742533    0.741831    8.142210    ( 0.0000,  0.0000,  0.0000)
  60 Cl     7.121877    5.739108    8.146925    ( 0.0000,  0.0000,  0.0000)
  61 Cl     5.796750    1.923023   21.240153    ( 0.0000,  0.0000,  0.0000)
  62 Cl     0.882785    6.912173   21.047270    ( 0.0000,  0.0000,  0.0000)
  63 Cl     2.069679    0.547286    7.966784    ( 0.0000,  0.0000,  0.0000)
  64 Cl     4.487996    5.767101    8.032447    ( 0.0000,  0.0000,  0.0000)
  65 Cl     3.221751    1.812749   21.199894    ( 0.0000,  0.0000,  0.0000)
  66 Cl     6.111284    4.484024   21.194378    ( 0.0000,  0.0000,  0.0000)
  67 Cl     1.530885    3.012671    8.024287    ( 0.0000,  0.0000,  0.0000)

Unit cell:
           periodic     x           y           z      points  spacing
  1. axis:    yes    7.851007    0.000000    0.000000    45     0.1655
  2. axis:    yes    2.617002    7.851007    0.000000    48     0.1636
  3. axis:    yes    0.000000    0.000000   30.683867   175     0.1753

  Lengths:   7.851007   8.275688  30.683867
  Angles:   90.000000  90.000000  71.565053

Effective grid spacing dv^(1/3) = 0.1710

     iter     time        total  log10-change:
                         energy  eigst   dens
iter:   1 15:57:56 -4605.046167  -1.37
iter:   2 15:59:03 -4594.226369  -1.60  -1.69
iter:   3 15:59:58 -4593.019767  -2.80  -2.01
iter:   4 16:00:49 -4592.153954  -3.81  -2.10
iter:   5 16:01:42 -4592.111954  -3.46  -2.30
iter:   6 16:02:33 -4592.001910c -3.36  -2.39
iter:   7 16:03:25 -4591.962252c -4.47  -2.47
iter:   8 16:04:17 -4591.853019c -3.88  -2.51
iter:   9 16:05:09 -4591.826024c -4.47  -2.75
iter:  10 16:06:01 -4591.827035c -3.98  -2.94
iter:  11 16:06:53 -4591.819403c -5.16  -2.94
iter:  12 16:08:03 -4591.821021c -4.70  -3.08
iter:  13 16:09:25 -4591.818783c -5.15  -3.19
iter:  14 16:10:17 -4591.814395c -5.47  -3.21
iter:  15 16:11:08 -4591.814406c -5.37  -3.57
iter:  16 16:12:05 -4591.813836c -5.88  -3.70
iter:  17 16:12:56 -4591.813430c -6.00  -3.76
iter:  18 16:13:48 -4591.813653c -6.79  -4.07c
iter:  19 16:14:39 -4591.813564c -7.21  -4.15c
iter:  20 16:15:31 -4591.813678c -6.95  -4.20c
iter:  21 16:16:23 -4591.813600c -7.11  -4.24c
iter:  22 16:17:20 -4591.813603c -7.48c -4.32c

Converged after 22 iterations.

Dipole moment: (-23.192032, -35.334474, -0.011092) |e|*Ang

Energy contributions relative to reference atoms: (reference = -2606927.690960)

Kinetic:       +572.091924
Potential:     -585.403187
External:        +0.000000
XC:            -4577.454932
Entropy (-ST):   -0.780564
Local:           -0.657125
--------------------------
Free energy:   -4592.203885
Extrapolated:  -4591.813603

Showing only first 2 kpts
 Kpt  Band  Eigenvalues  Occupancy
  0   344     -0.14457    1.78174
  0   345     -0.00832    1.35274
  0   346      0.05900    1.03198
  0   347      0.19492    0.42993

  1   344      0.01180    1.26173
  1   345      0.03838    1.13427
  1   346      0.06834    0.98528
  1   347      0.12590    0.70641


Fermi level: 0.06540

No gap

Forces in eV/Ang:
  0 Cu    0.01384    0.02229   -0.15885
  1 Cu   -0.00644   -0.07366   -0.07633
  2 Cu   -0.06149   -0.10976    0.01281
  3 Cu   -0.00633   -0.00844   -0.00825
  4 Cu   -0.00472    0.01081   -0.03642
  5 Cu    0.00808    0.01154   -0.00171
  6 Cu    0.03252    0.00570    0.03512
  7 Cu    0.00202    0.04951    0.01830
  8 Cu   -0.02969    0.00069    0.08382
  9 Cu    0.02364    0.04748   -0.02486
 10 Cu   -0.01061   -0.01603   -0.01907
 11 Cu   -0.01842   -0.09568    0.01470
 12 Cu    0.14824    0.27861    0.46674
 13 Cu    0.06817   -0.09385    0.01069
 14 Cu   -0.00142   -0.00218    0.03252
 15 Cu    0.00029    0.01618   -0.02866
 16 Cu   -0.04304    0.01867    0.05896
 17 Cu    0.00927   -0.04776    0.05497
 18 Cu   -0.07896    0.01949    0.19958
 19 Cu   -0.01225   -0.13850   -0.01924
 20 Cu   -0.02006    0.05159   -0.00365
 21 Cu   -0.00231    0.05956    0.04826
 22 Cu    0.00534    0.00108    0.02295
 23 Cu   -0.00065    0.01250   -0.01461
 24 Cu    0.00517   -0.02359   -0.01019
 25 Cu    0.00637   -0.00309    0.03359
 26 Cu    0.00591    0.00542    0.09606
 27 Cu    0.04398   -0.07550    0.01650
 28 Cu    0.00861    0.15593    0.00236
 29 Cu    0.00007    0.06450    0.08388
 30 Cu   -0.00450   -0.02943   -0.12845
 31 Cu    0.01367    0.01287   -0.01726
 32 Cu    0.02201   -0.00277   -0.04813
 33 Cu   -0.00495    0.01012   -0.07850
 34 Cu   -0.00581    0.00039   -0.05465
 35 Cu   -0.00084   -0.01359   -0.01078
 36 Cu    0.00410    0.00958   -0.04526
 37 Cu   -0.00838    0.00668   -0.03746
 38 Cu    0.02753   -0.08103   -0.08482
 39 Cu   -0.07255    0.09365   -0.02728
 40 Cu   -0.09628   -0.10948   -0.26322
 41 Cu    0.09056   -0.05221   -0.12472
 42 Cu    0.01559    0.05874   -0.00412
 43 Cu   -0.01569   -0.04020    0.01893
 44 Cu   -0.02028   -0.00449   -0.03682
 45 Cu    0.00468    0.00958   -0.00025
 46 Cu    0.00423   -0.00814    0.02080
 47 Cu    0.00843    0.01079   -0.01125
 48 Cu   -0.06680   -0.08869    0.00243
 49 Cu   -0.00017    0.05886    0.06030
 50 Cu   -0.01240    0.00907    0.25283
 51 Cu    0.01980   -0.01122   -0.07339
 52 Cu   -0.00647   -0.00866   -0.02201
 53 Cu    0.07097    0.09602   -0.03716
 54 Cl    0.12015   -0.17507   -0.10889
 55 Cl   -0.24163    0.22340    0.04236
 56 Cl    0.06199    0.14174   -0.19492
 57 Cl    0.04546   -0.01512    0.02816
 58 Cl   -0.36493   -0.08661   -0.02736
 59 Cl   -0.00374   -0.29942   -0.17145
 60 Cl   -0.00800    0.00382   -0.05655
 61 Cl   -0.05082   -0.48222    0.28216
 62 Cl   -0.10201    0.17918    0.14158
 63 Cl    0.37434   -0.03082   -0.05431
 64 Cl    0.02356   -0.15234   -0.27190
 65 Cl    0.06419    0.27327    0.23550
 66 Cl    0.35358    0.28721    0.02071
 67 Cl   -0.32794    0.07236   -0.00781

System changes: positions 

Initializing position-dependent things.

Density initialized from wave functions
                                     
                                     
                                     
                                     
            Cl         Cl            
                Cl                   
                        Cl           
        Cl Cu  ClCu  Cl Cu           
                                     
         Cu    Cu    CCu    Cu       
             Cu    Cu     Cu         
       Cu     Cu    Cu               
           Cu    CCu    Cu           
         Cu    Cu    CCu    Cu       
                                     
       Cu    CCu    Cu    Cu         
           Cu    CCu    Cu           
               Cu    Cu     Cu       
         Cu     Cu    Cu             
       Cu    CCu    Cu    Cu         
                                     
           Cu Cl  CuCl  Cu Cl        
                                     
           Cl      Cl                
           Cl          Cl            
                                     
                                     
                                     
                                     

Positions:
   0 Cu     1.883733    1.827000   10.062715    ( 0.0000,  0.0000,  0.0000)
   1 Cu     0.564875    0.524021   11.888602    ( 0.0000,  0.0000,  0.0000)
   2 Cu     3.214799    0.535374   11.866255    ( 0.0000,  0.0000,  0.0000)
   3 Cu     1.890571    1.837348   13.704715    ( 0.0000,  0.0000,  0.0000)
   4 Cu     0.583034    0.528543   15.524387    ( 0.0000,  0.0000,  0.0000)
   5 Cu     3.185297    0.525294   15.529389    ( 0.0000,  0.0000,  0.0000)
   6 Cu     1.892705    1.848792   17.361655    ( 0.0000,  0.0000,  0.0000)
   7 Cu     0.568235    0.520981   19.190110    ( 0.0000,  0.0000,  0.0000)
   8 Cu     3.178627    0.504005   19.181275    ( 0.0000,  0.0000,  0.0000)
   9 Cu     0.546205    3.125411   11.873913    ( 0.0000,  0.0000,  0.0000)
  10 Cu     0.577421    3.142110   15.517396    ( 0.0000,  0.0000,  0.0000)
  11 Cu     0.578745    3.185091   19.192824    ( 0.0000,  0.0000,  0.0000)
  12 Cu     7.127173    1.883278   10.050149    ( 0.0000,  0.0000,  0.0000)
  13 Cu     5.793875    0.527265   11.869908    ( 0.0000,  0.0000,  0.0000)
  14 Cu     7.103413    1.831333   13.719540    ( 0.0000,  0.0000,  0.0000)
  15 Cu     5.806579    0.518088   15.535693    ( 0.0000,  0.0000,  0.0000)
  16 Cu     7.116028    1.827009   17.339799    ( 0.0000,  0.0000,  0.0000)
  17 Cu     5.809886    0.520109   19.203552    ( 0.0000,  0.0000,  0.0000)
  18 Cu     4.493015    1.767085   10.009738    ( 0.0000,  0.0000,  0.0000)
  19 Cu     4.509174    4.391446    9.986620    ( 0.0000,  0.0000,  0.0000)
  20 Cu     3.212658    3.139286   11.869195    ( 0.0000,  0.0000,  0.0000)
  21 Cu     5.812097    3.136652   11.860789    ( 0.0000,  0.0000,  0.0000)
  22 Cu     4.505108    1.839368   13.730745    ( 0.0000,  0.0000,  0.0000)
  23 Cu     4.499310    4.445270   13.705014    ( 0.0000,  0.0000,  0.0000)
  24 Cu     3.188862    3.150431   15.535122    ( 0.0000,  0.0000,  0.0000)
  25 Cu     5.808066    3.153870   15.537269    ( 0.0000,  0.0000,  0.0000)
  26 Cu     4.490529    1.836702   17.375116    ( 0.0000,  0.0000,  0.0000)
  27 Cu     4.469577    4.451752   17.368922    ( 0.0000,  0.0000,  0.0000)
  28 Cu     3.181496    3.205711   19.275295    ( 0.0000,  0.0000,  0.0000)
  29 Cu     5.816085    3.148973   19.149896    ( 0.0000,  0.0000,  0.0000)
  30 Cu     1.873377    4.425974   10.077450    ( 0.0000,  0.0000,  0.0000)
  31 Cu     1.874800    7.098423   10.013220    ( 0.0000,  0.0000,  0.0000)
  32 Cu     0.580994    5.767232   11.898648    ( 0.0000,  0.0000,  0.0000)
  33 Cu     3.195008    5.759990   11.860693    ( 0.0000,  0.0000,  0.0000)
  34 Cu     1.883243    4.441763   13.703140    ( 0.0000,  0.0000,  0.0000)
  35 Cu     1.885544    7.076528   13.708737    ( 0.0000,  0.0000,  0.0000)
  36 Cu     0.590545    5.763330   15.525703    ( 0.0000,  0.0000,  0.0000)
  37 Cu     3.185283    5.754502   15.513077    ( 0.0000,  0.0000,  0.0000)
  38 Cu     1.885448    4.452009   17.384754    ( 0.0000,  0.0000,  0.0000)
  39 Cu     1.902372    7.068949   17.369731    ( 0.0000,  0.0000,  0.0000)
  40 Cu     0.570833    5.703658   19.171633    ( 0.0000,  0.0000,  0.0000)
  41 Cu     3.201800    5.821713   19.236209    ( 0.0000,  0.0000,  0.0000)
  42 Cu     7.112037    4.404743   10.059709    ( 0.0000,  0.0000,  0.0000)
  43 Cu     7.119014    7.078595   10.055808    ( 0.0000,  0.0000,  0.0000)
  44 Cu     5.796973    5.749246   11.882859    ( 0.0000,  0.0000,  0.0000)
  45 Cu     7.116352    4.455183   13.723392    ( 0.0000,  0.0000,  0.0000)
  46 Cu     7.108905    7.066125   13.717839    ( 0.0000,  0.0000,  0.0000)
  47 Cu     5.799313    5.755530   15.540461    ( 0.0000,  0.0000,  0.0000)
  48 Cu     7.148492    4.461302   17.358523    ( 0.0000,  0.0000,  0.0000)
  49 Cu     7.124281    7.073054   17.345383    ( 0.0000,  0.0000,  0.0000)
  50 Cu     5.816303    5.748410   19.157038    ( 0.0000,  0.0000,  0.0000)
  51 Cu     4.513541    7.090641   10.059438    ( 0.0000,  0.0000,  0.0000)
  52 Cu     4.504503    7.069646   13.715119    ( 0.0000,  0.0000,  0.0000)
  53 Cu     4.474212    7.063760   17.372990    ( 0.0000,  0.0000,  0.0000)
  54 Cl     2.837948    4.738408   21.177408    ( 0.0000,  0.0000,  0.0000)
  55 Cl     4.773825    2.892410    8.070468    ( 0.0000,  0.0000,  0.0000)
  56 Cl     1.915476    5.710368    8.024310    ( 0.0000,  0.0000,  0.0000)
  57 Cl     0.581077    1.852466   21.113256    ( 0.0000,  0.0000,  0.0000)
  58 Cl     5.424544    6.981740   21.189333    ( 0.0000,  0.0000,  0.0000)
  59 Cl     6.718773    0.738516    8.135692    ( 0.0000,  0.0000,  0.0000)
  60 Cl     7.122084    5.739832    8.134373    ( 0.0000,  0.0000,  0.0000)
  61 Cl     5.790560    1.877618   21.290285    ( 0.0000,  0.0000,  0.0000)
  62 Cl     0.897359    6.891269   21.064513    ( 0.0000,  0.0000,  0.0000)
  63 Cl     2.138139    0.550502    7.950648    ( 0.0000,  0.0000,  0.0000)
  64 Cl     4.489982    5.751497    7.986299    ( 0.0000,  0.0000,  0.0000)
  65 Cl     3.231930    1.843394   21.239958    ( 0.0000,  0.0000,  0.0000)
  66 Cl     6.176532    4.514975   21.213149    ( 0.0000,  0.0000,  0.0000)
  67 Cl     1.470511    3.016465    8.009687    ( 0.0000,  0.0000,  0.0000)

Unit cell:
           periodic     x           y           z      points  spacing
  1. axis:    yes    7.851007    0.000000    0.000000    45     0.1655
  2. axis:    yes    2.617002    7.851007    0.000000    48     0.1636
  3. axis:    yes    0.000000    0.000000   30.683867   175     0.1753

  Lengths:   7.851007   8.275688  30.683867
  Angles:   90.000000  90.000000  71.565053

Effective grid spacing dv^(1/3) = 0.1710

     iter     time        total  log10-change:
                         energy  eigst   dens
iter:   1 16:19:04 -4593.979238  -2.11
iter:   2 16:20:13 -4592.944649  -2.33  -2.03
iter:   3 16:21:03 -4592.570431  -3.11  -2.22
iter:   4 16:21:53 -4592.043667  -3.97  -2.29
iter:   5 16:22:50 -4592.026872  -4.69  -2.79
iter:   6 16:23:42 -4592.011243c -3.89  -2.88
iter:   7 16:24:34 -4592.006978c -5.23  -3.05
iter:   8 16:25:27 -4592.011493c -4.84  -3.16
iter:   9 16:26:20 -4592.018803c -4.61  -3.15
iter:  10 16:27:13 -4592.005017c -5.30  -2.99
iter:  11 16:28:18 -4592.004149c -5.69  -3.41
iter:  12 16:29:15 -4592.004574c -5.40  -3.63
iter:  13 16:30:07 -4592.003445c -6.25  -3.60
iter:  14 16:31:00 -4592.003254c -6.75  -3.93
iter:  15 16:31:52 -4592.003270c -6.34  -4.02c
iter:  16 16:32:44 -4592.003154c -7.11  -4.22c
iter:  17 16:33:40 -4592.003123c -7.12  -4.32c
iter:  18 16:34:31 -4592.003049c -7.44c -4.40c

Converged after 18 iterations.

Dipole moment: (-25.628953, -35.617916, -0.018661) |e|*Ang

Energy contributions relative to reference atoms: (reference = -2606927.690960)

Kinetic:       +564.740199
Potential:     -579.686362
External:        +0.000000
XC:            -4575.984836
Entropy (-ST):   -0.801397
Local:           -0.671352
--------------------------
Free energy:   -4592.403748
Extrapolated:  -4592.003049

Showing only first 2 kpts
 Kpt  Band  Eigenvalues  Occupancy
  0   344     -0.19522    1.76091
  0   345     -0.06351    1.32730
  0   346     -0.00171    1.03079
  0   347      0.13722    0.41908

  1   344     -0.06873    1.35042
  1   345     -0.03524    1.19590
  1   346      0.00530    0.99576
  1   347      0.07227    0.67331


Fermi level: 0.00445

No gap

Forces in eV/Ang:
  0 Cu    0.00697   -0.00453   -0.20484
  1 Cu    0.03626   -0.04780   -0.04996
  2 Cu   -0.05562   -0.05337    0.00650
  3 Cu   -0.01150   -0.01280   -0.03516
  4 Cu   -0.00418    0.01211    0.01075
  5 Cu    0.01347    0.01499    0.01277
  6 Cu    0.02672    0.00542    0.05209
  7 Cu    0.00063    0.02352    0.04525
  8 Cu   -0.02296    0.04255    0.19306
  9 Cu    0.09543    0.06918    0.03210
 10 Cu   -0.00614   -0.01405    0.01423
 11 Cu   -0.02901   -0.11109    0.03986
 12 Cu    0.00030   -0.12294   -0.07722
 13 Cu    0.02195   -0.05322    0.00711
 14 Cu    0.01258   -0.00100   -0.01777
 15 Cu   -0.00949    0.02243   -0.00494
 16 Cu   -0.02286    0.01697    0.05830
 17 Cu    0.01092   -0.06528    0.16996
 18 Cu    0.01743    0.04072    0.03453
 19 Cu   -0.01252   -0.00110   -0.10009
 20 Cu   -0.04921    0.01410   -0.00622
 21 Cu   -0.03419    0.05521    0.08480
 22 Cu   -0.00134   -0.00737   -0.03144
 23 Cu   -0.00316    0.01661   -0.00436
 24 Cu    0.01244   -0.02493   -0.00767
 25 Cu   -0.00588   -0.01306    0.02216
 26 Cu   -0.01054    0.01635    0.11128
 27 Cu    0.06838   -0.01031    0.01467
 28 Cu    0.01712    0.00197    0.08361
 29 Cu    0.02099    0.01934    0.25022
 30 Cu   -0.01603    0.01176   -0.19637
 31 Cu    0.00599    0.04975   -0.11065
 32 Cu    0.01812   -0.01192   -0.06047
 33 Cu    0.00460   -0.01370   -0.10952
 34 Cu    0.00072    0.00574   -0.03706
 35 Cu    0.00775   -0.01758   -0.01685
 36 Cu   -0.01427    0.00000    0.01511
 37 Cu    0.00448    0.00972    0.02053
 38 Cu    0.02052   -0.04627   -0.08410
 39 Cu   -0.01802    0.04023   -0.00297
 40 Cu   -0.00687    0.13399    0.06051
 41 Cu    0.01342   -0.01055   -0.05993
 42 Cu    0.01803    0.13674   -0.05555
 43 Cu    0.00172   -0.04676   -0.04115
 44 Cu   -0.02558   -0.01438   -0.05864
 45 Cu    0.00151    0.00740   -0.01933
 46 Cu    0.00120   -0.00884   -0.01125
 47 Cu    0.01117    0.01222    0.01955
 48 Cu   -0.09287   -0.05640   -0.00561
 49 Cu   -0.03683    0.01777    0.05381
 50 Cu    0.00452    0.00976    0.21469
 51 Cu    0.01426   -0.03483   -0.17183
 52 Cu   -0.00929   -0.01084   -0.02430
 53 Cu    0.05412    0.03193   -0.00140
 54 Cl    0.17943   -0.14930   -0.17693
 55 Cl   -0.24424    0.09931    0.17847
 56 Cl    0.06369    0.09816   -0.09599
 57 Cl   -0.00387   -0.01058   -0.02139
 58 Cl   -0.36432    0.25277   -0.16267
 59 Cl    0.11652   -0.03279    0.32038
 60 Cl    0.01534    0.00080    0.02764
 61 Cl    0.01380   -0.16936    0.12408
 62 Cl   -0.20974    0.05303   -0.22329
 63 Cl    0.27991   -0.11890    0.08297
 64 Cl    0.01085   -0.09862   -0.14125
 65 Cl    0.04873    0.12513    0.08835
 66 Cl    0.36187   -0.18118   -0.14340
 67 Cl   -0.30452    0.11521    0.13149

System changes: positions 

Initializing position-dependent things.

Density initialized from wave functions
                                     
                                     
                                     
                                     
            Cl         Cl            
                                     
                Cl      Cl           
               ClCu  Cl Cu           
        Cl Cu                        
         Cu    Cu    CCu    Cu       
                                     
       Cu    CCu   CCu    Cu         
           Cu    CCu    Cu           
                                     
         Cu    Cu    CCu    Cu       
             Cu     Cu    Cu         
       Cu     Cu    Cu               
           Cu    CCu    Cu           
         Cu    Cu    CCu    Cu       
                                     
       Cu    CCu   CCu    Cu         
                        Cu Cl        
           Cu Cl  CuCl               
           Cl      Cl                
                                     
            Cl        Cl             
                                     
                                     
                                     
                                     

Positions:
   0 Cu     1.892129    1.827034   10.011259    ( 0.0000,  0.0000,  0.0000)
   1 Cu     0.567755    0.507969   11.875046    ( 0.0000,  0.0000,  0.0000)
   2 Cu     3.198869    0.510076   11.876734    ( 0.0000,  0.0000,  0.0000)
   3 Cu     1.888962    1.834332   13.699442    ( 0.0000,  0.0000,  0.0000)
   4 Cu     0.582458    0.531958   15.513223    ( 0.0000,  0.0000,  0.0000)
   5 Cu     3.188350    0.529659   15.525228    ( 0.0000,  0.0000,  0.0000)
   6 Cu     1.899626    1.849827   17.365180    ( 0.0000,  0.0000,  0.0000)
   7 Cu     0.567402    0.527967   19.198484    ( 0.0000,  0.0000,  0.0000)
   8 Cu     3.169958    0.514011   19.226352    ( 0.0000,  0.0000,  0.0000)
   9 Cu     0.559506    3.138329   11.880553    ( 0.0000,  0.0000,  0.0000)
  10 Cu     0.575880    3.137925   15.509289    ( 0.0000,  0.0000,  0.0000)
  11 Cu     0.575714    3.157175   19.201603    ( 0.0000,  0.0000,  0.0000)
  12 Cu     7.144814    1.912282   10.101975    ( 0.0000,  0.0000,  0.0000)
  13 Cu     5.807265    0.503932   11.881802    ( 0.0000,  0.0000,  0.0000)
  14 Cu     7.103172    1.830913   13.725858    ( 0.0000,  0.0000,  0.0000)
  15 Cu     5.804832    0.522840   15.526711    ( 0.0000,  0.0000,  0.0000)
  16 Cu     7.105577    1.829632   17.351046    ( 0.0000,  0.0000,  0.0000)
  17 Cu     5.811335    0.508207   19.234225    ( 0.0000,  0.0000,  0.0000)
  18 Cu     4.483693    1.773455   10.062634    ( 0.0000,  0.0000,  0.0000)
  19 Cu     4.507127    4.352840    9.972042    ( 0.0000,  0.0000,  0.0000)
  20 Cu     3.203312    3.146078   11.875364    ( 0.0000,  0.0000,  0.0000)
  21 Cu     5.809834    3.152606   11.888246    ( 0.0000,  0.0000,  0.0000)
  22 Cu     4.506367    1.839614   13.733361    ( 0.0000,  0.0000,  0.0000)
  23 Cu     4.498628    4.448413   13.703704    ( 0.0000,  0.0000,  0.0000)
  24 Cu     3.190703    3.144970   15.528521    ( 0.0000,  0.0000,  0.0000)
  25 Cu     5.808097    3.153761   15.541576    ( 0.0000,  0.0000,  0.0000)
  26 Cu     4.492534    1.835486   17.400033    ( 0.0000,  0.0000,  0.0000)
  27 Cu     4.483312    4.442233   17.363496    ( 0.0000,  0.0000,  0.0000)
  28 Cu     3.184199    3.247582   19.286111    ( 0.0000,  0.0000,  0.0000)
  29 Cu     5.815449    3.161958   19.204602    ( 0.0000,  0.0000,  0.0000)
  30 Cu     1.873768    4.419586   10.027488    ( 0.0000,  0.0000,  0.0000)
  31 Cu     1.877103    7.111134    9.982228    ( 0.0000,  0.0000,  0.0000)
  32 Cu     0.586838    5.765100   11.888650    ( 0.0000,  0.0000,  0.0000)
  33 Cu     3.193173    5.761691   11.837868    ( 0.0000,  0.0000,  0.0000)
  34 Cu     1.882428    4.440708   13.691210    ( 0.0000,  0.0000,  0.0000)
  35 Cu     1.887193    7.072901   13.707840    ( 0.0000,  0.0000,  0.0000)
  36 Cu     0.591490    5.764583   15.515837    ( 0.0000,  0.0000,  0.0000)
  37 Cu     3.184038    5.755501   15.504983    ( 0.0000,  0.0000,  0.0000)
  38 Cu     1.889793    4.433330   17.352018    ( 0.0000,  0.0000,  0.0000)
  39 Cu     1.888788    7.091954   17.355317    ( 0.0000,  0.0000,  0.0000)
  40 Cu     0.559235    5.693300   19.134088    ( 0.0000,  0.0000,  0.0000)
  41 Cu     3.219436    5.815754   19.185919    ( 0.0000,  0.0000,  0.0000)
  42 Cu     7.112160    4.431785   10.049823    ( 0.0000,  0.0000,  0.0000)
  43 Cu     7.118181    7.069591   10.050980    ( 0.0000,  0.0000,  0.0000)
  44 Cu     5.791579    5.747285   11.877285    ( 0.0000,  0.0000,  0.0000)
  45 Cu     7.117229    4.458297   13.725486    ( 0.0000,  0.0000,  0.0000)
  46 Cu     7.109123    7.063399   13.724829    ( 0.0000,  0.0000,  0.0000)
  47 Cu     5.800699    5.758367   15.539220    ( 0.0000,  0.0000,  0.0000)
  48 Cu     7.130975    4.444040   17.350199    ( 0.0000,  0.0000,  0.0000)
  49 Cu     7.120759    7.084114   17.355874    ( 0.0000,  0.0000,  0.0000)
  50 Cu     5.811970    5.750526   19.218171    ( 0.0000,  0.0000,  0.0000)
  51 Cu     4.518978    7.077915   10.016853    ( 0.0000,  0.0000,  0.0000)
  52 Cu     4.501933    7.066233   13.712667    ( 0.0000,  0.0000,  0.0000)
  53 Cu     4.491256    7.084626   17.358977    ( 0.0000,  0.0000,  0.0000)
  54 Cl     2.838126    4.736003   21.132507    ( 0.0000,  0.0000,  0.0000)
  55 Cl     4.731056    2.896850    8.107775    ( 0.0000,  0.0000,  0.0000)
  56 Cl     1.940565    5.742560    7.948142    ( 0.0000,  0.0000,  0.0000)
  57 Cl     0.586936    1.848687   21.129106    ( 0.0000,  0.0000,  0.0000)
  58 Cl     5.248094    7.018986   21.189882    ( 0.0000,  0.0000,  0.0000)
  59 Cl     6.685064    0.751785    8.186285    ( 0.0000,  0.0000,  0.0000)
  60 Cl     7.124870    5.740777    8.115656    ( 0.0000,  0.0000,  0.0000)
  61 Cl     5.783758    1.801445   21.393949    ( 0.0000,  0.0000,  0.0000)
  62 Cl     0.900833    6.837720   21.059315    ( 0.0000,  0.0000,  0.0000)
  63 Cl     2.300916    0.539998    7.936302    ( 0.0000,  0.0000,  0.0000)
  64 Cl     4.493904    5.718231    7.885203    ( 0.0000,  0.0000,  0.0000)
  65 Cl     3.255468    1.900799   21.323066    ( 0.0000,  0.0000,  0.0000)
  66 Cl     6.343292    4.522208   21.226012    ( 0.0000,  0.0000,  0.0000)
  67 Cl     1.321939    3.039397    8.004032    ( 0.0000,  0.0000,  0.0000)

Unit cell:
           periodic     x           y           z      points  spacing
  1. axis:    yes    7.851007    0.000000    0.000000    45     0.1655
  2. axis:    yes    2.617002    7.851007    0.000000    48     0.1636
  3. axis:    yes    0.000000    0.000000   30.683867   175     0.1753

  Lengths:   7.851007   8.275688  30.683867
  Angles:   90.000000  90.000000  71.565053

Effective grid spacing dv^(1/3) = 0.1710

     iter     time        total  log10-change:
                         energy  eigst   dens
iter:   1 16:35:51 -4594.692739  -1.63
iter:   2 16:36:41 -4599.076456  -2.17  -2.02
iter:   3 16:37:34 -4592.688953  -2.71  -1.77
iter:   4 16:38:30 -4592.507308  -3.78  -2.37
iter:   5 16:39:20 -4592.393207c -3.40  -2.48
iter:   6 16:40:10 -4592.407504c -4.43  -2.69
iter:   7 16:41:13 -4592.379209c -5.23  -2.67
iter:   8 16:42:17 -4592.519675c -3.73  -2.76
iter:   9 16:43:10 -4592.367365c -4.42  -2.59
iter:  10 16:44:02 -4592.371294c -4.96  -2.98
iter:  11 16:44:54 -4592.391271c -4.50  -2.99
iter:  12 16:45:45 -4592.363038c -5.08  -2.80
iter:  13 16:46:36 -4592.358470c -5.25  -3.14
iter:  14 16:47:27 -4592.356566c -5.35  -3.40
iter:  15 16:48:31 -4592.356323c -6.07  -3.61
iter:  16 16:49:34 -4592.357630c -5.69  -3.69
iter:  17 16:50:39 -4592.356545c -6.51  -3.81
iter:  18 16:52:02 -4592.356535c -7.17  -4.04c
iter:  19 16:52:54 -4592.356334c -6.27  -4.08c
iter:  20 16:53:59 -4592.356380c -7.49c -4.29c

Converged after 20 iterations.

Dipole moment: (-30.004588, -35.849633, -0.033905) |e|*Ang

Energy contributions relative to reference atoms: (reference = -2606927.690960)

Kinetic:       +557.252883
Potential:     -574.001228
External:        +0.000000
XC:            -4574.516304
Entropy (-ST):   -0.876393
Local:           -0.653535
--------------------------
Free energy:   -4592.794576
Extrapolated:  -4592.356380

Showing only first 2 kpts
 Kpt  Band  Eigenvalues  Occupancy
  0   344     -0.27157    1.69438
  0   345     -0.14880    1.23788
  0   346     -0.10034    1.00021
  0   347     -0.01097    0.58087

  1   344     -0.24726    1.62603
  1   345     -0.18444    1.39754
  1   346     -0.05572    0.78075
  1   347     -0.00369    0.55135


Fermi level: -0.10029

No gap

Forces in eV/Ang:
  0 Cu   -0.00992   -0.04355   -0.27095
  1 Cu    0.08342    0.02655   -0.03790
  2 Cu   -0.01900    0.05421   -0.07530
  3 Cu   -0.01207   -0.02168   -0.03839
  4 Cu    0.00327    0.00927    0.07937
  5 Cu    0.01412    0.02018    0.02199
  6 Cu    0.00808   -0.00356    0.07681
  7 Cu    0.01669   -0.05925    0.07595
  8 Cu   -0.00036    0.05570    0.26322
  9 Cu    0.10158    0.03242   -0.02489
 10 Cu   -0.00079   -0.00904    0.04824
 11 Cu   -0.02941    0.02100    0.03785
 12 Cu   -0.07229   -0.19911   -0.25220
 13 Cu   -0.05388    0.04954   -0.02604
 14 Cu    0.03756   -0.00265   -0.11359
 15 Cu   -0.02336    0.02322    0.03642
 16 Cu   -0.00369    0.00436    0.07228
 17 Cu   -0.00597    0.01212    0.23941
 18 Cu    0.09509   -0.06506   -0.02652
 19 Cu   -0.01020    0.25376   -0.11406
 20 Cu   -0.07969   -0.03931   -0.06172
 21 Cu    0.00890   -0.00229    0.00266
 22 Cu   -0.02012   -0.02212   -0.11487
 23 Cu   -0.02155    0.03104    0.02325
 24 Cu    0.02725   -0.02274   -0.01365
 25 Cu   -0.02742   -0.04204   -0.03293
 26 Cu   -0.01401    0.03491    0.14824
 27 Cu    0.08596    0.05747    0.04426
 28 Cu    0.02035   -0.26628    0.11997
 29 Cu    0.05074   -0.02461    0.35621
 30 Cu   -0.03741    0.05375   -0.25264
 31 Cu    0.03196   -0.08003   -0.10221
 32 Cu    0.01636   -0.00998   -0.08273
 33 Cu    0.00938   -0.04451   -0.16002
 34 Cu    0.02417    0.03644    0.04141
 35 Cu    0.02110   -0.02722   -0.01930
 36 Cu   -0.04229   -0.00977    0.10880
 37 Cu    0.02664    0.01084    0.10249
 38 Cu   -0.04764    0.04679    0.03340
 39 Cu    0.05803   -0.05797    0.04295
 40 Cu    0.04752    0.11519    0.14394
 41 Cu   -0.06212    0.11621   -0.02166
 42 Cu    0.02252    0.04404   -0.05474
 43 Cu    0.00481    0.01980   -0.09359
 44 Cu   -0.02703   -0.01243   -0.09520
 45 Cu   -0.00095    0.01088   -0.03171
 46 Cu   -0.00645   -0.01439   -0.06992
 47 Cu    0.01144    0.01377    0.02821
 48 Cu   -0.04910    0.03500    0.08425
 49 Cu   -0.07498   -0.03295    0.05363
 50 Cu    0.03472    0.02494    0.24898
 51 Cu    0.01648   -0.03489   -0.27867
 52 Cu   -0.01077   -0.02323   -0.01104
 53 Cu    0.01812   -0.06027    0.09027
 54 Cl    0.20568   -0.11098   -0.12757
 55 Cl   -0.24122   -0.00027    0.13300
 56 Cl    0.19089    0.16003   -0.00130
 57 Cl   -0.04203    0.00451   -0.04062
 58 Cl   -0.45450    0.26526   -0.54180
 59 Cl    0.14283    0.03789    0.31672
 60 Cl    0.03195    0.00594    0.08540
 61 Cl   -0.11203   -0.06510    0.01913
 62 Cl   -0.25066    0.12400   -0.29070
 63 Cl    0.24928   -0.11565    0.41302
 64 Cl   -0.08745   -0.06703   -0.05075
 65 Cl    0.19239    0.05127    0.02606
 66 Cl    0.43564   -0.30918   -0.56656
 67 Cl   -0.40428    0.03758    0.48314

System changes: positions 

Initializing position-dependent things.

Density initialized from wave functions
                                     
                                     
                                     
                                     
                       Cl            
            Cl                       
                Cl       Cl          
               Cl    Cl Cu           
        Cl Cu    Cu                  
         Cu    CCu   CCu    Cu       
                                     
       Cu    CCu   CCu    Cu         
           Cu    CCu    Cu           
                            Cu       
         Cu    Cu    CCu             
             Cu     Cu    Cu         
       Cu     Cu    Cu               
           Cu    CCu    Cu           
         Cu    Cu    CCu    Cu       
                                     
       Cu    CCu   CCu    Cu         
                  Cu    Cu Cl        
           Cu Cl    Cl               
          Cl       Cl                
                      Cl             
            Cl                       
                                     
                                     
                                     
                                     

Positions:
   0 Cu     1.901442    1.827072    9.954192    ( 0.0000,  0.0000,  0.0000)
   1 Cu     0.570949    0.490168   11.860012    ( 0.0000,  0.0000,  0.0000)
   2 Cu     3.181202    0.482019   11.888356    ( 0.0000,  0.0000,  0.0000)
   3 Cu     1.887178    1.830987   13.693594    ( 0.0000,  0.0000,  0.0000)
   4 Cu     0.581820    0.535744   15.500842    ( 0.0000,  0.0000,  0.0000)
   5 Cu     3.191736    0.534501   15.520613    ( 0.0000,  0.0000,  0.0000)
   6 Cu     1.907301    1.850974   17.369088    ( 0.0000,  0.0000,  0.0000)
   7 Cu     0.566478    0.535714   19.207770    ( 0.0000,  0.0000,  0.0000)
   8 Cu     3.160343    0.525108   19.276343    ( 0.0000,  0.0000,  0.0000)
   9 Cu     0.574256    3.152654   11.887917    ( 0.0000,  0.0000,  0.0000)
  10 Cu     0.574171    3.133284   15.500298    ( 0.0000,  0.0000,  0.0000)
  11 Cu     0.572353    3.126214   19.211338    ( 0.0000,  0.0000,  0.0000)
  12 Cu     7.164377    1.944448   10.159452    ( 0.0000,  0.0000,  0.0000)
  13 Cu     5.822115    0.478055   11.894993    ( 0.0000,  0.0000,  0.0000)
  14 Cu     7.102906    1.830446   13.732865    ( 0.0000,  0.0000,  0.0000)
  15 Cu     5.802894    0.528110   15.516750    ( 0.0000,  0.0000,  0.0000)
  16 Cu     7.093986    1.832540   17.363519    ( 0.0000,  0.0000,  0.0000)
  17 Cu     5.812941    0.495008   19.268241    ( 0.0000,  0.0000,  0.0000)
  18 Cu     4.473355    1.780519   10.121296    ( 0.0000,  0.0000,  0.0000)
  19 Cu     4.504857    4.310026    9.955875    ( 0.0000,  0.0000,  0.0000)
  20 Cu     3.192947    3.153610   11.882207    ( 0.0000,  0.0000,  0.0000)
  21 Cu     5.807325    3.170300   11.918697    ( 0.0000,  0.0000,  0.0000)
  22 Cu     4.507762    1.839886   13.736263    ( 0.0000,  0.0000,  0.0000)
  23 Cu     4.497871    4.451898   13.702252    ( 0.0000,  0.0000,  0.0000)
  24 Cu     3.192745    3.138914   15.521200    ( 0.0000,  0.0000,  0.0000)
  25 Cu     5.808132    3.153641   15.546352    ( 0.0000,  0.0000,  0.0000)
  26 Cu     4.494757    1.834138   17.427667    ( 0.0000,  0.0000,  0.0000)
  27 Cu     4.498544    4.431677   17.357480    ( 0.0000,  0.0000,  0.0000)
  28 Cu     3.187197    3.294018   19.298106    ( 0.0000,  0.0000,  0.0000)
  29 Cu     5.814743    3.176359   19.265272    ( 0.0000,  0.0000,  0.0000)
  30 Cu     1.874203    4.412501    9.972079    ( 0.0000,  0.0000,  0.0000)
  31 Cu     1.879657    7.125231    9.947857    ( 0.0000,  0.0000,  0.0000)
  32 Cu     0.593318    5.762735   11.877562    ( 0.0000,  0.0000,  0.0000)
  33 Cu     3.191138    5.763578   11.812555    ( 0.0000,  0.0000,  0.0000)
  34 Cu     1.881524    4.439539   13.677980    ( 0.0000,  0.0000,  0.0000)
  35 Cu     1.889023    7.068879   13.706845    ( 0.0000,  0.0000,  0.0000)
  36 Cu     0.592538    5.765972   15.504896    ( 0.0000,  0.0000,  0.0000)
  37 Cu     3.182658    5.756609   15.496006    ( 0.0000,  0.0000,  0.0000)
  38 Cu     1.894613    4.412614   17.315713    ( 0.0000,  0.0000,  0.0000)
  39 Cu     1.873723    7.117468   17.339331    ( 0.0000,  0.0000,  0.0000)
  40 Cu     0.546373    5.681814   19.092450    ( 0.0000,  0.0000,  0.0000)
  41 Cu     3.238994    5.809146   19.130148    ( 0.0000,  0.0000,  0.0000)
  42 Cu     7.112296    4.461775   10.038859    ( 0.0000,  0.0000,  0.0000)
  43 Cu     7.117257    7.059605   10.045626    ( 0.0000,  0.0000,  0.0000)
  44 Cu     5.785597    5.745110   11.871103    ( 0.0000,  0.0000,  0.0000)
  45 Cu     7.118201    4.461751   13.727807    ( 0.0000,  0.0000,  0.0000)
  46 Cu     7.109365    7.060376   13.732580    ( 0.0000,  0.0000,  0.0000)
  47 Cu     5.802236    5.761512   15.537843    ( 0.0000,  0.0000,  0.0000)
  48 Cu     7.111548    4.424897   17.340967    ( 0.0000,  0.0000,  0.0000)
  49 Cu     7.116853    7.096380   17.367508    ( 0.0000,  0.0000,  0.0000)
  50 Cu     5.807165    5.752873   19.285968    ( 0.0000,  0.0000,  0.0000)
  51 Cu     4.525008    7.063801    9.969625    ( 0.0000,  0.0000,  0.0000)
[...]
 28 Cu    0.01152    0.00928   -0.00897
 29 Cu    0.00655    0.00220    0.00426
 30 Cu   -0.00901   -0.00063   -0.00563
 31 Cu   -0.01882   -0.00495   -0.00033
 32 Cu   -0.00007    0.00285    0.00513
 33 Cu   -0.00462   -0.00506   -0.00294
 34 Cu    0.01480    0.00554    0.00638
 35 Cu   -0.00613    0.00557    0.00264
 36 Cu   -0.00302   -0.00052    0.00679
 37 Cu   -0.00325   -0.00185    0.00024
 38 Cu    0.00717   -0.01704    0.00186
 39 Cu    0.00440   -0.00200    0.00629
 40 Cu   -0.01427    0.00740    0.00139
 41 Cu   -0.00862   -0.00700    0.00500
 42 Cu   -0.01992   -0.00328    0.00748
 43 Cu   -0.00087    0.00116   -0.00357
 44 Cu    0.00367    0.00213   -0.00396
 45 Cu   -0.01006    0.00431   -0.01301
 46 Cu    0.00058   -0.00615   -0.00128
 47 Cu   -0.00693    0.00849    0.00368
 48 Cu    0.00180    0.00231   -0.00040
 49 Cu   -0.00050   -0.00509    0.00933
 50 Cu   -0.01015    0.01769    0.01545
 51 Cu   -0.00116   -0.00853   -0.00076
 52 Cu   -0.00273    0.00116   -0.00528
 53 Cu   -0.01559    0.01593   -0.00019
 54 Cl   -0.01215    0.00876   -0.00396
 55 Cl    0.00026   -0.00175   -0.00144
 56 Cl    0.01699    0.00880    0.02147
 57 Cl    0.01625   -0.00546   -0.01611
 58 Cl    0.00658   -0.00252   -0.01820
 59 Cl    0.01512    0.00079   -0.00937
 60 Cl   -0.03156    0.02457   -0.00927
 61 Cl   -0.00323   -0.00560    0.00910
 62 Cl   -0.01108   -0.01816    0.00853
 63 Cl   -0.00070    0.00784   -0.00871
 64 Cl    0.02491    0.00969    0.01121
 65 Cl   -0.01170   -0.01072   -0.01286
 66 Cl   -0.00171   -0.00278    0.01520
 67 Cl    0.01220   -0.00681   -0.01419

System changes: positions 

Initializing position-dependent things.

Density initialized from wave functions
                                     
                                     
                                     
                                     
                                     
                                     
                                     
                Cl                   
               Cl    Cl   Cl         
                                     
                  Cl      Cl         
           Cl    Cu    Cu            
               Cu    Cu    Cu        
         Cu     Cu    Cu             
       Cu    CCu    Cu    Cu         
           Cu    Cu    Cu            
            Cu    Cu    Cu           
         Cu    CCu   CCu   Cu        
                                     
        Cu   CCu   CCu    Cu         
           CCu   CCu   CCu           
                     Cu    Cu        
         Cu    CCu    Cu             
        Cu   CCu   CCu    Cu         
                       Cl            
            Cu    Cu    Cu           
         Cl      Cl                  
                                     
         Cl    Cl   Cl               
                   Cl                
                                     
                                     
                                     
                                     
                                     
                                     
                                     

Positions:
   0 Cu     2.062628    1.851429    9.940559    ( 0.0000,  0.0000,  0.0000)
   1 Cu     0.606981    0.524017   11.832953    ( 0.0000,  0.0000,  0.0000)
   2 Cu     3.213821    0.528347   11.849562    ( 0.0000,  0.0000,  0.0000)
   3 Cu     1.897990    1.832277   13.692301    ( 0.0000,  0.0000,  0.0000)
   4 Cu     0.580895    0.509933   15.543389    ( 0.0000,  0.0000,  0.0000)
   5 Cu     3.199579    0.521163   15.527383    ( 0.0000,  0.0000,  0.0000)
   6 Cu     1.893218    1.822266   17.371447    ( 0.0000,  0.0000,  0.0000)
   7 Cu     0.555311    0.507230   19.205641    ( 0.0000,  0.0000,  0.0000)
   8 Cu     3.193321    0.547676   19.212196    ( 0.0000,  0.0000,  0.0000)
   9 Cu     0.605766    3.114939   11.812947    ( 0.0000,  0.0000,  0.0000)
  10 Cu     0.567634    3.129479   15.544946    ( 0.0000,  0.0000,  0.0000)
  11 Cu     0.594336    3.128044   19.165380    ( 0.0000,  0.0000,  0.0000)
  12 Cu     7.271344    1.841420    9.889075    ( 0.0000,  0.0000,  0.0000)
  13 Cu     5.837444    0.522112   11.837767    ( 0.0000,  0.0000,  0.0000)
  14 Cu     7.137850    1.816017   13.695336    ( 0.0000,  0.0000,  0.0000)
  15 Cu     5.805119    0.510746   15.526972    ( 0.0000,  0.0000,  0.0000)
  16 Cu     7.090398    1.816387   17.385406    ( 0.0000,  0.0000,  0.0000)
  17 Cu     5.762404    0.538575   19.277371    ( 0.0000,  0.0000,  0.0000)
  18 Cu     4.677322    1.802267    9.979215    ( 0.0000,  0.0000,  0.0000)
  19 Cu     4.447593    4.432578    9.976831    ( 0.0000,  0.0000,  0.0000)
  20 Cu     3.217839    3.133105   11.825621    ( 0.0000,  0.0000,  0.0000)
  21 Cu     5.859495    3.117438   11.832823    ( 0.0000,  0.0000,  0.0000)
  22 Cu     4.519031    1.831953   13.695225    ( 0.0000,  0.0000,  0.0000)
  23 Cu     4.493484    4.443014   13.671333    ( 0.0000,  0.0000,  0.0000)
  24 Cu     3.206458    3.135510   15.544477    ( 0.0000,  0.0000,  0.0000)
  25 Cu     5.812106    3.142557   15.522463    ( 0.0000,  0.0000,  0.0000)
  26 Cu     4.524871    1.830681   17.412932    ( 0.0000,  0.0000,  0.0000)
  27 Cu     4.513278    4.456219   17.399329    ( 0.0000,  0.0000,  0.0000)
  28 Cu     3.215054    3.124794   19.240456    ( 0.0000,  0.0000,  0.0000)
  29 Cu     5.805471    3.114193   19.270401    ( 0.0000,  0.0000,  0.0000)
  30 Cu     1.866818    4.485537    9.942718    ( 0.0000,  0.0000,  0.0000)
  31 Cu     1.846916    7.051827    9.950940    ( 0.0000,  0.0000,  0.0000)
  32 Cu     0.567039    5.749061   11.825885    ( 0.0000,  0.0000,  0.0000)
  33 Cu     3.142113    5.748939   11.808469    ( 0.0000,  0.0000,  0.0000)
  34 Cu     1.879437    4.430040   13.696589    ( 0.0000,  0.0000,  0.0000)
  35 Cu     1.889183    7.058805   13.686337    ( 0.0000,  0.0000,  0.0000)
  36 Cu     0.571627    5.759380   15.526942    ( 0.0000,  0.0000,  0.0000)
  37 Cu     3.191116    5.743516   15.519455    ( 0.0000,  0.0000,  0.0000)
  38 Cu     1.873771    4.452222   17.374767    ( 0.0000,  0.0000,  0.0000)
  39 Cu     1.871123    7.048095   17.383825    ( 0.0000,  0.0000,  0.0000)
  40 Cu     0.541331    5.721992   19.305088    ( 0.0000,  0.0000,  0.0000)
  41 Cu     3.161288    5.757706   19.224743    ( 0.0000,  0.0000,  0.0000)
  42 Cu     7.064807    4.405749    9.997390    ( 0.0000,  0.0000,  0.0000)
  43 Cu     7.056124    7.047731   10.014681    ( 0.0000,  0.0000,  0.0000)
  44 Cu     5.780201    5.739496   11.838528    ( 0.0000,  0.0000,  0.0000)
  45 Cu     7.129439    4.440411   13.679943    ( 0.0000,  0.0000,  0.0000)
  46 Cu     7.116800    7.056268   13.673660    ( 0.0000,  0.0000,  0.0000)
  47 Cu     5.809831    5.745216   15.523118    ( 0.0000,  0.0000,  0.0000)
  48 Cu     7.116052    4.467301   17.396823    ( 0.0000,  0.0000,  0.0000)
  49 Cu     7.103091    7.050968   17.396165    ( 0.0000,  0.0000,  0.0000)
  50 Cu     5.760289    5.773688   19.322730    ( 0.0000,  0.0000,  0.0000)
  51 Cu     4.429840    7.054189   10.006385    ( 0.0000,  0.0000,  0.0000)
  52 Cu     4.497420    7.054202   13.688867    ( 0.0000,  0.0000,  0.0000)
  53 Cu     4.498408    7.043122   17.379922    ( 0.0000,  0.0000,  0.0000)
  54 Cl     3.968747    4.468053   21.018633    ( 0.0000,  0.0000,  0.0000)
  55 Cl     3.673020    2.988598    8.226060    ( 0.0000,  0.0000,  0.0000)
  56 Cl     2.133968    5.877165    5.627412    ( 0.0000,  0.0000,  0.0000)
  57 Cl     1.764453    1.815121   20.857865    ( 0.0000,  0.0000,  0.0000)
  58 Cl     6.472662    7.201830   21.077780    ( 0.0000,  0.0000,  0.0000)
  59 Cl     5.641184    0.205059    8.257058    ( 0.0000,  0.0000,  0.0000)
  60 Cl     5.639794    5.803187    8.350138    ( 0.0000,  0.0000,  0.0000)
  61 Cl     5.673781    1.962932   23.465805    ( 0.0000,  0.0000,  0.0000)
  62 Cl     1.881308    7.186986   20.898304    ( 0.0000,  0.0000,  0.0000)
  63 Cl     0.984761    0.609996    8.260786    ( 0.0000,  0.0000,  0.0000)
  64 Cl     3.953935    5.694869    4.785378    ( 0.0000,  0.0000,  0.0000)
  65 Cl     3.850179    1.774482   24.299608    ( 0.0000,  0.0000,  0.0000)
  66 Cl     7.249189    4.049223   20.956351    ( 0.0000,  0.0000,  0.0000)
  67 Cl     0.488717    3.947367    8.132395    ( 0.0000,  0.0000,  0.0000)

Unit cell:
           periodic     x           y           z      points  spacing
  1. axis:    yes    7.851007    0.000000    0.000000    45     0.1655
  2. axis:    yes    2.617002    7.851007    0.000000    48     0.1636
  3. axis:    yes    0.000000    0.000000   30.683867   175     0.1753

  Lengths:   7.851007   8.275688  30.683867
  Angles:   90.000000  90.000000  71.565053

Effective grid spacing dv^(1/3) = 0.1710

     iter     time        total  log10-change:
                         energy  eigst   dens
iter:   1 14:45:55 -4598.878880  -3.24
iter:   2 14:46:50 -4598.876228  -4.52  -3.32
iter:   3 14:47:47 -4598.876226c -5.01  -3.38
iter:   4 14:48:43 -4598.874867c -4.95  -3.41
iter:   5 14:49:39 -4598.873369c -5.73  -3.54
iter:   6 14:50:34 -4598.873264c -5.32  -3.77
iter:   7 14:51:30 -4598.873340c -6.24  -3.94
iter:   8 14:52:25 -4598.873030c -5.85  -4.05c
iter:   9 14:53:36 -4598.872995c -6.62  -4.35c
iter:  10 14:54:31 -4598.873012c -6.53  -4.43c
iter:  11 14:55:25 -4598.873002c -7.35  -4.58c
iter:  12 14:56:19 -4598.873002c -7.79c -4.71c

Converged after 12 iterations.

Dipole moment: (-18.451632, -37.590581, 0.036455) |e|*Ang

Energy contributions relative to reference atoms: (reference = -2606927.690960)

Kinetic:       +528.418533
Potential:     -554.383813
External:        +0.000000
XC:            -4571.857548
Entropy (-ST):   -0.545163
Local:           -0.777591
--------------------------
Free energy:   -4599.145583
Extrapolated:  -4598.873002

Showing only first 2 kpts
 Kpt  Band  Eigenvalues  Occupancy
  0   344     -0.20288    1.91901
  0   345     -0.11009    1.80709
  0   346     -0.06117    1.70342
  0   347      0.15096    0.81549

  1   344     -0.08282    1.75404
  1   345      0.00833    1.48272
  1   346      0.09267    1.10443
  1   347      0.23668    0.45219


Fermi level: 0.11363

No gap

Forces in eV/Ang:
  0 Cu   -0.00226   -0.01682   -0.00511
  1 Cu   -0.00695    0.00543    0.00126
  2 Cu   -0.00039   -0.00382   -0.00323
  3 Cu   -0.00067    0.00754    0.00716
  4 Cu   -0.00675    0.00759    0.00139
  5 Cu    0.00442   -0.01331    0.00644
  6 Cu    0.00553    0.00642   -0.00360
  7 Cu    0.01856    0.00412   -0.00015
  8 Cu    0.00512   -0.00990    0.00118
  9 Cu   -0.00320    0.01293    0.00097
 10 Cu    0.00169    0.00425   -0.00265
 11 Cu    0.01526   -0.00625   -0.00471
 12 Cu   -0.00208    0.00457    0.00678
 13 Cu    0.00318   -0.00700    0.00064
 14 Cu    0.00391   -0.00025   -0.00425
 15 Cu   -0.00505   -0.00113    0.00041
 16 Cu   -0.00360    0.00219   -0.00089
 17 Cu    0.01031    0.00527   -0.00899
 18 Cu   -0.00804   -0.00416   -0.00007
 19 Cu    0.00174   -0.00614    0.00330
 20 Cu   -0.00568   -0.00073    0.00852
 21 Cu   -0.00205   -0.00112   -0.00215
 22 Cu    0.00479   -0.00541   -0.00005
 23 Cu    0.00320   -0.00531   -0.00656
 24 Cu    0.00907   -0.01049   -0.00080
 25 Cu    0.00578    0.00739   -0.00122
 26 Cu    0.00021    0.00405   -0.00240
 27 Cu   -0.00033    0.00301   -0.00488
 28 Cu    0.01941    0.00632   -0.00168
 29 Cu    0.01030    0.00303    0.00880
 30 Cu   -0.01245    0.00236   -0.00090
 31 Cu   -0.00492   -0.00636    0.00077
 32 Cu   -0.00694    0.00371   -0.00482
 33 Cu   -0.00271   -0.00236   -0.00448
 34 Cu    0.00736    0.00543    0.00222
 35 Cu   -0.00122    0.00545    0.00543
 36 Cu   -0.00388    0.00074   -0.00036
 37 Cu   -0.00472    0.00387   -0.00245
 38 Cu    0.00321   -0.00479   -0.00911
 39 Cu   -0.00550   -0.00885    0.00584
 40 Cu   -0.01706   -0.00755    0.00376
 41 Cu    0.00225   -0.00698    0.00806
 42 Cu   -0.02079    0.00498    0.00271
 43 Cu   -0.00585   -0.01491   -0.00668
 44 Cu    0.00066    0.00069   -0.01714
 45 Cu   -0.00279   -0.00142   -0.00121
 46 Cu   -0.00462   -0.00049   -0.00106
 47 Cu   -0.00242    0.00139   -0.00027
 48 Cu   -0.00402   -0.00208   -0.00137
 49 Cu   -0.00389    0.00034    0.00380
 50 Cu   -0.01297    0.01140    0.01371
 51 Cu   -0.00849   -0.00344    0.00806
 52 Cu   -0.00091    0.00581   -0.00096
 53 Cu   -0.00497    0.00666    0.00115
 54 Cl    0.00138    0.00038   -0.00193
 55 Cl   -0.00921    0.01249   -0.01150
 56 Cl    0.01199    0.00479    0.00421
 57 Cl   -0.00856   -0.01102    0.00405
 58 Cl    0.00684    0.01254   -0.01539
 59 Cl    0.01463   -0.01383   -0.01078
 60 Cl    0.00053    0.01181   -0.00422
 61 Cl   -0.00685   -0.00232    0.01748
 62 Cl    0.00136   -0.00581    0.01321
 63 Cl   -0.01202    0.01454   -0.00511
 64 Cl    0.01694    0.00791   -0.00688
 65 Cl   -0.00815   -0.00765   -0.00642
 66 Cl   -0.00523   -0.01681    0.00143
 67 Cl    0.01002    0.01931    0.00192

Timing:                                      incl.     excl.
-------------------------------------------------------------------
Density initialized from wave functions:   467.660   467.655   0.5% |
 Symmetrize density:                         0.005     0.005   0.0% |
Forces:                                   2064.912  2064.912   2.4% ||
Hamiltonian:                               763.697     1.586   0.0% |
 Atomic:                                    37.718    11.469   0.0% |
  XC Correction:                            26.248    26.248   0.0% |
 Calculate atomic Hamiltonians:            194.079   194.079   0.2% |
 Communicate:                                3.371     3.371   0.0% |
 Initialize Hamiltonian:                     0.001     0.001   0.0% |
 Poisson:                                    0.537     0.537   0.0% |
 XC 3D grid:                               526.406    75.230   0.1% |
  VdW-DF integral:                         451.176    14.481   0.0% |
   Convolution:                             29.310    29.310   0.0% |
   FFT:                                     15.290    15.290   0.0% |
   gather:                                 166.584   166.584   0.2% |
   hmm1:                                     8.937     8.937   0.0% |
   hmm2:                                    21.150    21.150   0.0% |
   iFFT:                                    15.915    15.915   0.0% |
   potential:                              174.441     1.742   0.0% |
    collect:                                27.093    27.093   0.0% |
    p1:                                     82.201    82.201   0.1% |
    p2:                                     30.857    30.857   0.0% |
    sum:                                    32.548    32.548   0.0% |
   splines:                                  5.068     5.068   0.0% |
LCAO initialization:                       235.595     0.615   0.0% |
 LCAO eigensolver:                          14.743     0.001   0.0% |
  Blacs Orbital Layouts:                     0.714     0.001   0.0% |
   General diagonalize:                      0.702     0.702   0.0% |
   Redistribute coefs:                       0.006     0.006   0.0% |
   Send coefs to domains:                    0.005     0.005   0.0% |
  Calculate projections:                     0.005     0.005   0.0% |
  Distribute overlap matrix:                13.666     0.001   0.0% |
   Scalapack redistribute:                   0.011     0.011   0.0% |
   blocked summation:                       13.655    13.655   0.0% |
  Potential matrix:                          0.248     0.248   0.0% |
  SparseAtomicCorrection:                    0.009     0.009   0.0% |
  Sum over cells:                            0.099     0.099   0.0% |
 LCAO to grid:                             217.556   217.556   0.2% |
 Set positions (LCAO WFS):                   2.681     0.011   0.0% |
  Basic WFS set positions:                   0.004     0.004   0.0% |
  Basis functions set positions:             0.001     0.001   0.0% |
  P tci:                                     0.000     0.000   0.0% |
  ST tci:                                    0.496     0.496   0.0% |
  Scalapack redistribute:                    0.021     0.021   0.0% |
  blocked summation:                         1.926     1.926   0.0% |
  mktci:                                     0.222     0.222   0.0% |
PWDescriptor:                                0.672     0.672   0.0% |
Redistribute:                                0.183     0.183   0.0% |
SCF-cycle:                               82902.638  2884.849   3.3% ||
 Davidson:                               61573.306 16018.161  18.4% |------|
  Apply H:                                6170.914  6068.122   7.0% |--|
   HMM T:                                  102.793   102.793   0.1% |
  Subspace diag:                         10491.844     0.319   0.0% |
   calc_h_matrix:                         7696.805  1606.218   1.8% ||
    Apply H:                              6090.587  5975.809   6.9% |--|
     HMM T:                                114.778   114.778   0.1% |
   diagonalize:                            334.782   334.782   0.4% |
   rotate_psi:                            2459.938  2459.938   2.8% ||
  calc. matrices:                        22436.332 10392.744  11.9% |----|
   Apply H:                              12043.588 11837.910  13.6% |----|
    HMM T:                                 205.678   205.678   0.2% |
  diagonalize:                            1915.188  1915.188   2.2% ||
  rotate_psi:                             4540.868  4540.868   5.2% |-|
 Density:                                 6731.178     0.074   0.0% |
  Atomic density matrices:                  27.681    27.681   0.0% |
  Mix:                                    3262.986  3262.986   3.7% ||
  Multipole moments:                         1.579     1.579   0.0% |
  Pseudo density:                         3438.858  3438.790   3.9% |-|
   Symmetrize density:                       0.067     0.067   0.0% |
 Hamiltonian:                            11286.124    23.748   0.0% |
  Atomic:                                  547.796   162.384   0.2% |
   XC Correction:                          385.412   385.412   0.4% |
  Calculate atomic Hamiltonians:          2778.211  2778.211   3.2% ||
  Communicate:                              74.901    74.901   0.1% |
  Poisson:                                   7.954     7.954   0.0% |
  XC 3D grid:                             7853.513  1134.493   1.3% ||
   VdW-DF integral:                       6719.019   204.180   0.2% |
    Convolution:                           415.053   415.053   0.5% |
    FFT:                                   226.104   226.104   0.3% |
    gather:                               2660.520  2660.520   3.1% ||
    hmm1:                                  131.312   131.312   0.2% |
    hmm2:                                  310.758   310.758   0.4% |
    iFFT:                                  228.932   228.932   0.3% |
    potential:                            2542.141    24.677   0.0% |
     collect:                              392.585   392.585   0.5% |
     p1:                                  1196.699  1196.699   1.4% ||
     p2:                                   445.623   445.623   0.5% |
     sum:                                  482.558   482.558   0.6% |
    splines:                                 0.020     0.020   0.0% |
 Orthonormalize:                           427.180     0.038   0.0% |
  calc_s_matrix:                            49.249    49.249   0.1% |
  inverse-cholesky:                         38.187    38.187   0.0% |
  projections:                             256.519   256.519   0.3% |
  rotate_psi_s:                             83.188    83.188   0.1% |
Set symmetry:                                0.001     0.001   0.0% |
Other:                                     635.824   635.824   0.7% |
-------------------------------------------------------------------
Total:                                             87071.182 100.0%

Memory usage: 1.39 GiB
Date: Tue Oct 18 14:56:41 2022
