
  ___ ___ ___ _ _ _  
 |   |   |_  | | | | 
 | | | | | . | | | | 
 |__ |  _|___|_____|  22.1.0
 |___|_|             

User:   thorkong@node024.cluster
Date:   Mon Oct 17 12:14:51 2022
Arch:   x86_64
Pid:    13412
Python: 3.10.5
gpaw:   /groups/kemi/thorkong/miniconda3/envs/gpaw22/lib/python3.10/site-packages/gpaw
_gpaw:  /groups/kemi/thorkong/miniconda3/envs/gpaw22/lib/python3.10/site-packages/
        _gpaw.cpython-310-x86_64-linux-gnu.so
ase:    /groups/kemi/thorkong/miniconda3/envs/gpaw22/lib/python3.10/site-packages/ase (version 3.22.1)
numpy:  /groups/kemi/thorkong/miniconda3/envs/gpaw22/lib/python3.10/site-packages/numpy (version 1.23.0)
scipy:  /groups/kemi/thorkong/miniconda3/envs/gpaw22/lib/python3.10/site-packages/scipy (version 1.8.1)
libxc:  5.2.3
units:  Angstrom and eV
cores: 32
OpenMP: True
OMP_NUM_THREADS: 1

Input parameters:
  basis: dzp
  kpts: [4 4 1]
  mode: {ecut: 600.0,
         name: pw}
  xc: BEEF-vdW

System changes: positions, numbers, cell, pbc, initial_charges, initial_magmoms 

Initialize ...

Cu-setup:
  name: Copper
  id: f1c4d45d90492f1bbfdcb091e8418fdf
  Z: 29.0
  valence: 11
  core: 18
  charge: 0.0
  file: /groups/kemi/thorkong/miniconda3/envs/gpaw22/share/gpaw/Cu.PBE.gz
  compensation charges: gauss, rc=0.33, lmax=2
  cutoffs: 2.06(filt), 2.43(core),
  valence states:
                energy  radius
    4s(1.00)    -4.609   1.164
    4p(0.00)    -0.698   1.164
    3d(10.00)    -5.039   1.058
    *s          22.603   1.164
    *p          26.513   1.164
    *d          22.172   1.058

  LCAO basis set for Cu:
    Name: dzp
    File: /groups/kemi/thorkong/miniconda3/envs/gpaw22/share/gpaw/Cu.dzp.basis.gz
    Number of radial functions: 5
    Number of spherical harmonics: 15
      l=0, rc=8.9688 Bohr: 4s-sz confined orbital
      l=2, rc=5.1719 Bohr: 3d-sz confined orbital
      l=0, rc=5.3281 Bohr: 4s-dz split-valence wave
      l=2, rc=3.1406 Bohr: 3d-dz split-valence wave
      l=1, rc=8.9688 Bohr: p-type Gaussian polarization

Cl-setup:
  name: Chlorine
  id: 726897f06f34e53cf8e33b5885a02604
  Z: 17.0
  valence: 7
  core: 10
  charge: 0.0
  file: /groups/kemi/thorkong/miniconda3/envs/gpaw22/share/gpaw/Cl.PBE.gz
  compensation charges: gauss, rc=0.25, lmax=2
  cutoffs: 1.40(filt), 1.49(core),
  valence states:
                energy  radius
    3s(2.00)   -20.689   0.794
    3p(5.00)    -8.594   0.794
    *s           6.523   0.794
    *p          18.617   0.794
    *d           0.000   0.794

  LCAO basis set for Cl:
    Name: dzp
    File: /groups/kemi/thorkong/miniconda3/envs/gpaw22/share/gpaw/Cl.dzp.basis.gz
    Number of radial functions: 5
    Number of spherical harmonics: 13
      l=0, rc=5.1719 Bohr: 3s-sz confined orbital
      l=1, rc=6.2656 Bohr: 3p-sz confined orbital
      l=0, rc=2.8281 Bohr: 3s-dz split-valence wave
      l=1, rc=3.5156 Bohr: 3p-dz split-valence wave
      l=2, rc=6.2656 Bohr: d-type Gaussian polarization

Reference energy: -2556707.893378

Spin-paired calculation

Convergence criteria:
 Maximum [total energy] change in last 3 cyles: 0.0005 eV / electron
 Maximum integral of absolute [dens]ity change: 0.0001 electrons / valence electron
 Maximum integral of absolute [eigenst]ate change: 4e-08 eV^2 / valence electron
 Maximum number of scf [iter]ations: 333
 (Square brackets indicate name in SCF output, whereas a 'c' in
 the SCF output indicates the quantity has converged.)

Symmetries present (total): 1

  ( 1  0  0)
  ( 0  1  0)
  ( 0  0  1)

16 k-points: 4 x 4 x 1 Monkhorst-Pack grid
8 k-points in the irreducible part of the Brillouin zone
       k-points in crystal coordinates                weights
   0:     0.12500000   -0.37500000    0.00000000          2/16
   1:     0.12500000   -0.12500000    0.00000000          2/16
   2:     0.12500000    0.12500000    0.00000000          2/16
   3:     0.12500000    0.37500000    0.00000000          2/16
   4:     0.37500000   -0.37500000    0.00000000          2/16
   5:     0.37500000   -0.12500000    0.00000000          2/16
   6:     0.37500000    0.12500000    0.00000000          2/16
   7:     0.37500000    0.37500000    0.00000000          2/16

Wave functions: Plane wave expansion
  Cutoff energy: 600.000 eV
  Number of coefficients (min, max): 54614, 54705
  Pulay-stress correction: 0.000000 eV/Ang^3 (de/decut=0.000000)
  Using FFTW library
  ScaLapack parameters: grid=2x2, blocksize=64
  Wavefunction extrapolation:
    Improved wavefunction reuse through dual PAW basis 

Occupation numbers: Fermi-Dirac: width=0.1000 eV
 

Eigensolver
   Davidson(niter=2) 

Densities:
  Coarse grid: 45*45*175 grid
  Fine grid: 90*90*350 grid
  Total Charge: 0.000000 

Density mixing:
  Method: separate
  Backend: pulay
  Linear mixing parameter: 0.05
  Mixing with 5 old densities
  Damping of long wave oscillations: 50 

Hamiltonian:
  XC and Coulomb potentials evaluated on a 90*90*350 grid
  Using the BEEF-vdW Exchange-Correlation functional
  External potential:
    NoExternalPotential
 

XC parameters: BEEF-vdW with 2 nearest neighbor stencil

Memory estimate:
  Process memory now: 245.91 MiB
  Calculator: 774.03 MiB
    Density: 42.61 MiB
      Arrays: 17.67 MiB
      Localized functions: 18.14 MiB
      Mixer: 6.80 MiB
    Hamiltonian: 12.00 MiB
      Arrays: 11.56 MiB
      XC: 0.00 MiB
      Poisson: 0.00 MiB
      vbar: 0.44 MiB
    Wavefunctions: 719.43 MiB
      Arrays psit_nG: 336.40 MiB
      Eigensolver: 365.36 MiB
      Projections: 1.69 MiB
      Projectors: 2.09 MiB
      PW-descriptor: 13.88 MiB

Total number of cores used: 32
Parallelization over k-points: 8
Domain decomposition: 1 x 1 x 4
                      2 x 2 x 8 (xc only)

Number of atoms: 64
Number of atomic orbitals: 940
Number of bands in calculation: 403
Number of valence electrons: 664
Bands to converge: occupied

... initialized

Initializing position-dependent things.

Density initialized from atomic densities
Creating initial wave functions:
  403 bands from LCAO basis set

                                              
                                              
                                              
                                              
                     Cl            Cl         
                                              
                       Cl                     
            Cl          CCl   Cu     Cu       
                   Cu     Cu    Cu            
               Cu    Cu     Cu                
                    Cu     Cu    Cu           
                Cu    Cu    Cu                
           Cu    Cu     Cu                    
                Cu     Cu    Cu               
            Cu    Cu     Cu                   
       Cu     Cu        Cu    Cu     Cu       
                   CCu    Cu    Cu            
               Cu    Cu     Cu                
                    Cu     Cu    Cu           
                Cu    Cu    Cu                
           Cu    Cu     Cu                    
                Cu     Cu    Cu               
            Cu    Cu     Cu                   
       Cu     Cu   CCu          Cl            
                     Cl                       
                                              
         Cl            Cl                     
                                              
                                              
                                              
                                              

Positions:
   0 Cu     2.884162   -0.011729   10.033678    ( 0.0000,  0.0000,  0.0000)
   1 Cu     4.175487    2.207390    9.968025    ( 0.0000,  0.0000,  0.0000)
   2 Cu     0.268779    0.005327   10.035957    ( 0.0000,  0.0000,  0.0000)
   3 Cu     1.563079    2.250160   10.040939    ( 0.0000,  0.0000,  0.0000)
   4 Cu     2.905835    3.013667   12.132731    ( 0.0000,  0.0000,  0.0000)
   5 Cu     1.587256    0.751197   12.155983    ( 0.0000,  0.0000,  0.0000)
   6 Cu     5.501600    3.021336   12.124235    ( 0.0000,  0.0000,  0.0000)
   7 Cu     4.203724    0.772150   12.120007    ( 0.0000,  0.0000,  0.0000)
   8 Cu     5.509809    1.511263   14.273560    ( 0.0000,  0.0000,  0.0000)
   9 Cu     6.817749    3.779201   14.272965    ( 0.0000,  0.0000,  0.0000)
  10 Cu     2.895657    1.507106   14.282845    ( 0.0000,  0.0000,  0.0000)
  11 Cu     4.204745    3.779097   14.275593    ( 0.0000,  0.0000,  0.0000)
  12 Cu     2.898323   -0.006205   16.439255    ( 0.0000,  0.0000,  0.0000)
  13 Cu     4.202828    2.263486   16.411249    ( 0.0000,  0.0000,  0.0000)
  14 Cu     0.271173   -0.001683   16.415015    ( 0.0000,  0.0000,  0.0000)
  15 Cu     1.580207    2.267720   16.418056    ( 0.0000,  0.0000,  0.0000)
  16 Cu     2.898773    3.019517   18.534881    ( 0.0000,  0.0000,  0.0000)
  17 Cu     1.574509    0.759578   18.535562    ( 0.0000,  0.0000,  0.0000)
  18 Cu     5.517461    3.017381   18.557838    ( 0.0000,  0.0000,  0.0000)
  19 Cu     4.218777    0.769327   18.565915    ( 0.0000,  0.0000,  0.0000)
  20 Cu     5.482458    1.472743   20.721328    ( 0.0000,  0.0000,  0.0000)
  21 Cu     6.840691    3.826186   20.718062    ( 0.0000,  0.0000,  0.0000)
  22 Cu     2.872766    1.512688   20.651496    ( 0.0000,  0.0000,  0.0000)
  23 Cu     4.179191    3.794081   20.647081    ( 0.0000,  0.0000,  0.0000)
  24 Cu     5.533098    4.559222    9.954112    ( 0.0000,  0.0000,  0.0000)
  25 Cu     2.867968    4.534051   10.029210    ( 0.0000,  0.0000,  0.0000)
  26 Cu     4.213127    5.276205   12.126541    ( 0.0000,  0.0000,  0.0000)
  27 Cu     6.799507    5.268601   12.115394    ( 0.0000,  0.0000,  0.0000)
  28 Cu     8.121886    6.047639   14.244202    ( 0.0000,  0.0000,  0.0000)
  29 Cu     5.516666    6.046671   14.278211    ( 0.0000,  0.0000,  0.0000)
  30 Cu     5.511110    4.531825   16.410270    ( 0.0000,  0.0000,  0.0000)
  31 Cu     2.888634    4.532926   16.406558    ( 0.0000,  0.0000,  0.0000)
  32 Cu     4.204789    5.283723   18.534523    ( 0.0000,  0.0000,  0.0000)
  33 Cu     6.814487    5.265823   18.565627    ( 0.0000,  0.0000,  0.0000)
  34 Cu     8.131354    6.045561   20.650058    ( 0.0000,  0.0000,  0.0000)
  35 Cu     5.501317    6.065983   20.648502    ( 0.0000,  0.0000,  0.0000)
  36 Cu     5.515639   -0.030915   10.037620    ( 0.0000,  0.0000,  0.0000)
  37 Cu     6.838300    2.241957   10.038361    ( 0.0000,  0.0000,  0.0000)
  38 Cu     8.121401    3.021170   12.150082    ( 0.0000,  0.0000,  0.0000)
  39 Cu     6.815400    0.755845   12.149679    ( 0.0000,  0.0000,  0.0000)
  40 Cu     8.132578    1.510559   14.278234    ( 0.0000,  0.0000,  0.0000)
  41 Cu     9.440817    3.775125   14.268637    ( 0.0000,  0.0000,  0.0000)
  42 Cu     5.504098   -0.004613   16.403245    ( 0.0000,  0.0000,  0.0000)
  43 Cu     6.816730    2.264183   16.407976    ( 0.0000,  0.0000,  0.0000)
  44 Cu     8.113114    3.026556   18.553628    ( 0.0000,  0.0000,  0.0000)
  45 Cu     6.806143    0.763216   18.553497    ( 0.0000,  0.0000,  0.0000)
  46 Cu     8.148557    1.500971   20.654047    ( 0.0000,  0.0000,  0.0000)
  47 Cu     9.453486    3.785452   20.645604    ( 0.0000,  0.0000,  0.0000)
  48 Cu     8.143342    4.522704   10.030314    ( 0.0000,  0.0000,  0.0000)
  49 Cu     9.444142    5.279553   12.148158    ( 0.0000,  0.0000,  0.0000)
  50 Cu    10.750397    6.043904   14.266863    ( 0.0000,  0.0000,  0.0000)
  51 Cu     8.125450    4.536072   16.403731    ( 0.0000,  0.0000,  0.0000)
  52 Cu     9.432612    5.289470   18.528114    ( 0.0000,  0.0000,  0.0000)
  53 Cu    10.748665    6.030225   20.646267    ( 0.0000,  0.0000,  0.0000)
  54 Cl     6.147134    2.664301   22.667231    ( 0.0000,  0.0000,  0.0000)
  55 Cl     4.853098    3.366848    8.014863    ( 0.0000,  0.0000,  0.0000)
  56 Cl    10.101076    4.907838   23.055936    ( 0.0000,  0.0000,  0.0000)
  57 Cl     0.915929    1.127744    7.628448    ( 0.0000,  0.0000,  0.0000)
  58 Cl     8.857645    5.743262    7.623330    ( 0.0000,  0.0000,  0.0000)
  59 Cl     2.077612    0.292715   23.096412    ( 0.0000,  0.0000,  0.0000)
  60 Cl     4.840254    4.930032   23.057792    ( 0.0000,  0.0000,  0.0000)
  61 Cl     6.176970    1.105521    7.627990    ( 0.0000,  0.0000,  0.0000)
  62 Cl     3.525825    5.890548    7.624209    ( 0.0000,  0.0000,  0.0000)
  63 Cl     7.377612    0.192715   23.096412    ( 0.0000,  0.0000,  0.0000)

Unit cell:
           periodic     x           y           z      points  spacing
  1. axis:    yes    7.851007    0.000000    0.000000    45     0.1511
  2. axis:    yes    3.925503    6.799171    0.000000    45     0.1511
  3. axis:    yes    0.000000    0.000000   30.683867   175     0.1753

  Lengths:   7.851007   7.851006  30.683867
  Angles:   90.000000  90.000000  60.000001

Effective grid spacing dv^(1/3) = 0.1666

     iter     time        total  log10-change:
                         energy  eigst   dens
iter:   1 12:20:19 -4925.303118
iter:   2 12:21:09 -4908.817571  +1.39  -0.70
iter:   3 12:21:57 -4723.132417  +1.06  -0.74
iter:   4 12:22:46 -4614.558694  -0.17  -0.90
iter:   5 12:23:37 -4625.921531  -0.26  -1.11
iter:   6 12:24:25 -4460.086971  -1.04  -1.09
iter:   7 12:25:18 -4450.141673  -1.84  -1.50
iter:   8 12:26:07 -4448.875911  -2.12  -1.56
iter:   9 12:27:09 -4448.745382  -2.69  -1.54
iter:  10 12:28:03 -4449.425829  -2.50  -1.57
iter:  11 12:28:53 -4450.149141  -2.33  -1.55
iter:  12 12:29:53 -4451.512299  -2.76  -1.53
iter:  13 12:30:44 -4446.150487  -1.99  -1.53
iter:  14 12:31:34 -4444.757874  -3.52  -1.66
iter:  15 12:32:24 -4444.301795  -2.80  -1.73
iter:  16 12:33:14 -4444.060034  -3.82  -1.80
iter:  17 12:34:04 -4443.422372  -2.75  -1.83
iter:  18 12:35:04 -4443.329643  -2.78  -1.99
iter:  19 12:35:54 -4443.284013c -3.81  -2.20
iter:  20 12:36:43 -4443.371859c -3.25  -2.25
iter:  21 12:37:33 -4443.233496c -3.71  -2.23
iter:  22 12:38:24 -4443.209367c -4.24  -2.39
iter:  23 12:39:14 -4443.200892c -3.58  -2.52
iter:  24 12:40:05 -4443.144638c -4.54  -2.60
iter:  25 12:40:53 -4443.140324c -4.71  -2.89
iter:  26 12:41:51 -4443.135219c -5.15  -2.99
iter:  27 12:42:39 -4443.131381c -4.69  -3.14
iter:  28 12:43:28 -4443.131900c -5.57  -3.26
iter:  29 12:44:16 -4443.131093c -6.12  -3.33
iter:  30 12:45:06 -4443.131944c -5.16  -3.36
iter:  31 12:45:55 -4443.132400c -6.01  -3.32
iter:  32 12:46:43 -4443.133086c -5.77  -3.47
iter:  33 12:47:32 -4443.131743c -5.58  -3.65
iter:  34 12:48:28 -4443.131673c -6.64  -3.89
iter:  35 12:49:17 -4443.131434c -6.03  -3.91
iter:  36 12:50:13 -4443.131665c -7.35  -4.05c
iter:  37 12:51:10 -4443.131697c -7.09  -4.06c
iter:  38 12:51:59 -4443.131576c -7.57c -4.12c

Converged after 38 iterations.

Dipole moment: (-21.680506, -20.311897, -0.031681) |e|*Ang

Energy contributions relative to reference atoms: (reference = -2556707.893378)

Kinetic:       +493.583569
Potential:     -517.030218
External:        +0.000000
XC:            -4418.646419
Entropy (-ST):   -0.910347
Local:           -0.583334
--------------------------
Free energy:   -4443.586750
Extrapolated:  -4443.131576

Showing only first 2 kpts
 Kpt  Band  Eigenvalues  Occupancy
  0   330      0.39182    1.48478
  0   331      0.45473    1.21144
  0   332      0.51747    0.90131
  0   333      0.52729    0.85294

  1   330      0.21257    1.89073
  1   331      0.39975    1.45387
  1   332      0.42213    1.36067
  1   333      0.49267    1.02495


Fermi level: 0.49766

No gap

Forces in eV/Ang:
  0 Cu    0.01825   -0.00356   -0.13862
  1 Cu   -0.11613    0.14721    0.13315
  2 Cu    0.21532   -0.11102   -0.15044
  3 Cu    0.04394   -0.03076   -0.43435
  4 Cu   -0.04937   -0.00345   -0.09283
  5 Cu   -0.03661   -0.02981   -0.03987
  6 Cu    0.03195   -0.00821   -0.01487
  7 Cu    0.01891   -0.04034   -0.05369
  8 Cu    0.01101    0.00151    0.00633
  9 Cu    0.00681   -0.00783    0.01545
 10 Cu   -0.00190   -0.00650   -0.01575
 11 Cu    0.00177   -0.00035   -0.04069
 12 Cu   -0.00758    0.00758   -0.03476
 13 Cu   -0.00593    0.00644   -0.01462
 14 Cu    0.01419    0.00657   -0.05766
 15 Cu    0.00874   -0.01108   -0.02361
 16 Cu   -0.00551    0.00176    0.10857
 17 Cu    0.00155   -0.05133    0.02824
 18 Cu   -0.03137    0.01223    0.02081
 19 Cu   -0.02362   -0.02333    0.04799
 20 Cu   -0.07329    0.13206   -0.08804
 21 Cu    0.10461   -0.14777   -0.10579
 22 Cu    0.00880   -0.05617    0.39483
 23 Cu    0.07774   -0.06310    0.13634
 24 Cu    0.08257   -0.11701    0.11315
 25 Cu    0.08329   -0.12525   -0.06379
 26 Cu   -0.01323    0.07646   -0.04382
 27 Cu    0.02133    0.02147   -0.04629
 28 Cu    0.00765   -0.00637    0.03604
 29 Cu    0.00894   -0.01115    0.02446
 30 Cu   -0.01294   -0.00652   -0.00700
 31 Cu    0.01222   -0.01275   -0.01515
 32 Cu   -0.01419    0.05825    0.08426
 33 Cu   -0.02045    0.04510    0.04990
 34 Cu   -0.02219    0.00625    0.11478
 35 Cu    0.20765   -0.07320    0.29686
 36 Cu   -0.23285    0.08486   -0.24771
 37 Cu   -0.06724    0.07328   -0.11168
 38 Cu    0.00226    0.00183   -0.11403
 39 Cu    0.00900   -0.05811   -0.08726
 40 Cu   -0.01237    0.00913    0.01060
 41 Cu   -0.01143    0.00769    0.02489
 42 Cu   -0.00988    0.01115   -0.01944
 43 Cu   -0.00372   -0.00313    0.03935
 44 Cu    0.04961    0.00163    0.08629
 45 Cu    0.01770   -0.07872    0.05022
 46 Cu   -0.07801    0.10670    0.09709
 47 Cu   -0.04114    0.03018    0.42680
 48 Cu   -0.01183    0.05832   -0.42470
 49 Cu   -0.00187    0.04542   -0.02471
 50 Cu   -0.01780   -0.00674    0.06184
 51 Cu   -0.00182    0.00207    0.01137
 52 Cu    0.03788    0.02156    0.03950
 53 Cu   -0.18547    0.12760    0.18972
 54 Cl    0.22146   -0.29898   -0.03945
 55 Cl   -0.23076    0.34178   -0.06383
 56 Cl   -3.56699   -2.01785   -0.82964
 57 Cl    3.63262    1.95469    0.84407
 58 Cl   -3.36469   -2.50708    0.89776
 59 Cl    3.33184    2.43942   -0.81994
 60 Cl    0.97499   -1.73558   -0.04070
 61 Cl   -0.92208    2.20801   -0.02929
 62 Cl    0.94576   -1.94844   -0.10859
 63 Cl   -1.01418    1.55867    0.06005

System changes: positions 

Initializing position-dependent things.

Density initialized from wave functions
                                              
                                              
                                              
                                              
                      Cl          Cl          
                                              
                       Cl                     
            Cl          CCl   Cu     Cu       
                   Cu     Cu    Cu            
               Cu    Cu     Cu                
                    Cu     Cu    Cu           
                Cu    Cu    Cu                
           Cu    Cu     Cu                    
                Cu     Cu    Cu               
            Cu    Cu     Cu                   
       Cu     Cu        Cu    Cu     Cu       
                   CCu    Cu    Cu            
               Cu    Cu     Cu                
                    Cu     Cu    Cu           
                Cu    Cu    Cu                
           Cu    Cu     Cu                    
                Cu     Cu    Cu               
            Cu    Cu     Cu                   
       Cu     Cu   CCu         Cl             
                     Cl                       
                                              
          Cl          Cl                      
                                              
                                              
                                              
                                              

Positions:
   0 Cu     2.885013   -0.011895   10.027217    ( 0.0000,  0.0000,  0.0000)
   1 Cu     4.170074    2.214251    9.974231    ( 0.0000,  0.0000,  0.0000)
   2 Cu     0.278815    0.000152   10.028945    ( 0.0000,  0.0000,  0.0000)
   3 Cu     1.565127    2.248727   10.020694    ( 0.0000,  0.0000,  0.0000)
   4 Cu     2.903534    3.013506   12.128404    ( 0.0000,  0.0000,  0.0000)
   5 Cu     1.585550    0.749808   12.154124    ( 0.0000,  0.0000,  0.0000)
   6 Cu     5.503089    3.020953   12.123542    ( 0.0000,  0.0000,  0.0000)
   7 Cu     4.204606    0.770270   12.117505    ( 0.0000,  0.0000,  0.0000)
   8 Cu     5.510322    1.511333   14.273855    ( 0.0000,  0.0000,  0.0000)
   9 Cu     6.818066    3.778836   14.273685    ( 0.0000,  0.0000,  0.0000)
  10 Cu     2.895568    1.506803   14.282111    ( 0.0000,  0.0000,  0.0000)
  11 Cu     4.204828    3.779081   14.273696    ( 0.0000,  0.0000,  0.0000)
  12 Cu     2.897970   -0.005852   16.437635    ( 0.0000,  0.0000,  0.0000)
  13 Cu     4.202552    2.263786   16.410568    ( 0.0000,  0.0000,  0.0000)
  14 Cu     0.271834   -0.001377   16.412327    ( 0.0000,  0.0000,  0.0000)
  15 Cu     1.580614    2.267203   16.416955    ( 0.0000,  0.0000,  0.0000)
  16 Cu     2.898516    3.019599   18.539941    ( 0.0000,  0.0000,  0.0000)
  17 Cu     1.574581    0.757186   18.536878    ( 0.0000,  0.0000,  0.0000)
  18 Cu     5.515999    3.017951   18.558808    ( 0.0000,  0.0000,  0.0000)
  19 Cu     4.217676    0.768240   18.568152    ( 0.0000,  0.0000,  0.0000)
  20 Cu     5.479042    1.478898   20.717224    ( 0.0000,  0.0000,  0.0000)
  21 Cu     6.845567    3.819298   20.713131    ( 0.0000,  0.0000,  0.0000)
  22 Cu     2.873176    1.510070   20.669899    ( 0.0000,  0.0000,  0.0000)
  23 Cu     4.182814    3.791140   20.653436    ( 0.0000,  0.0000,  0.0000)
  24 Cu     5.536947    4.553768    9.959386    ( 0.0000,  0.0000,  0.0000)
  25 Cu     2.871850    4.528213   10.026237    ( 0.0000,  0.0000,  0.0000)
  26 Cu     4.212511    5.279769   12.124498    ( 0.0000,  0.0000,  0.0000)
  27 Cu     6.800501    5.269602   12.113237    ( 0.0000,  0.0000,  0.0000)
  28 Cu     8.122242    6.047342   14.245882    ( 0.0000,  0.0000,  0.0000)
  29 Cu     5.517082    6.046151   14.279351    ( 0.0000,  0.0000,  0.0000)
  30 Cu     5.510507    4.531521   16.409944    ( 0.0000,  0.0000,  0.0000)
  31 Cu     2.889204    4.532332   16.405852    ( 0.0000,  0.0000,  0.0000)
  32 Cu     4.204128    5.286438   18.538450    ( 0.0000,  0.0000,  0.0000)
  33 Cu     6.813534    5.267925   18.567953    ( 0.0000,  0.0000,  0.0000)
  34 Cu     8.130320    6.045852   20.655408    ( 0.0000,  0.0000,  0.0000)
  35 Cu     5.510995    6.062571   20.662338    ( 0.0000,  0.0000,  0.0000)
  36 Cu     5.504786   -0.026960   10.026074    ( 0.0000,  0.0000,  0.0000)
  37 Cu     6.835166    2.245373   10.033156    ( 0.0000,  0.0000,  0.0000)
  38 Cu     8.121506    3.021255   12.144767    ( 0.0000,  0.0000,  0.0000)
  39 Cu     6.815820    0.753136   12.145612    ( 0.0000,  0.0000,  0.0000)
  40 Cu     8.132001    1.510985   14.278728    ( 0.0000,  0.0000,  0.0000)
  41 Cu     9.440284    3.775483   14.269797    ( 0.0000,  0.0000,  0.0000)
  42 Cu     5.503638   -0.004093   16.402339    ( 0.0000,  0.0000,  0.0000)
  43 Cu     6.816556    2.264037   16.409810    ( 0.0000,  0.0000,  0.0000)
  44 Cu     8.115426    3.026632   18.557650    ( 0.0000,  0.0000,  0.0000)
  45 Cu     6.806968    0.759547   18.555838    ( 0.0000,  0.0000,  0.0000)
  46 Cu     8.144921    1.505944   20.658572    ( 0.0000,  0.0000,  0.0000)
  47 Cu     9.451569    3.786859   20.665497    ( 0.0000,  0.0000,  0.0000)
  48 Cu     8.142791    4.525422   10.010519    ( 0.0000,  0.0000,  0.0000)
  49 Cu     9.444055    5.281670   12.147006    ( 0.0000,  0.0000,  0.0000)
  50 Cu    10.749567    6.043590   14.269745    ( 0.0000,  0.0000,  0.0000)
  51 Cu     8.125365    4.536168   16.404261    ( 0.0000,  0.0000,  0.0000)
  52 Cu     9.434377    5.290475   18.529955    ( 0.0000,  0.0000,  0.0000)
  53 Cu    10.740020    6.036172   20.655110    ( 0.0000,  0.0000,  0.0000)
  54 Cl     6.157456    2.650366   22.665392    ( 0.0000,  0.0000,  0.0000)
  55 Cl     4.842342    3.382778    8.011888    ( 0.0000,  0.0000,  0.0000)
  56 Cl     9.934820    4.813788   23.017267    ( 0.0000,  0.0000,  0.0000)
  57 Cl     1.085243    1.218850    7.667790    ( 0.0000,  0.0000,  0.0000)
  58 Cl     8.700819    5.626409    7.665174    ( 0.0000,  0.0000,  0.0000)
  59 Cl     2.232907    0.406415   23.058195    ( 0.0000,  0.0000,  0.0000)
  60 Cl     4.885698    4.849138   23.055895    ( 0.0000,  0.0000,  0.0000)
  61 Cl     6.133992    1.208435    7.626625    ( 0.0000,  0.0000,  0.0000)
  62 Cl     3.569906    5.799733    7.619147    ( 0.0000,  0.0000,  0.0000)
  63 Cl     7.330342    0.265364   23.099211    ( 0.0000,  0.0000,  0.0000)

Unit cell:
           periodic     x           y           z      points  spacing
  1. axis:    yes    7.851007    0.000000    0.000000    45     0.1511
  2. axis:    yes    3.925503    6.799171    0.000000    45     0.1511
  3. axis:    yes    0.000000    0.000000   30.683867   175     0.1753

  Lengths:   7.851007   7.851006  30.683867
  Angles:   90.000000  90.000000  60.000001

Effective grid spacing dv^(1/3) = 0.1666

     iter     time        total  log10-change:
                         energy  eigst   dens
iter:   1 12:53:23 -4451.626750  -1.72
iter:   2 12:54:29 -4454.006928  -1.69  -1.71
iter:   3 12:55:45 -4447.309365  -2.51  -1.84
iter:   4 12:56:46 -4447.169877  -3.63  -2.29
iter:   5 12:57:35 -4447.092923c -4.06  -2.34
iter:   6 12:58:23 -4447.133703c -3.46  -2.34
iter:   7 12:59:12 -4446.825044c -3.91  -2.31
iter:   8 13:00:15 -4447.314348  -3.35  -2.51
iter:   9 13:01:16 -4446.764703  -4.07  -2.26
iter:  10 13:02:42 -4446.732069  -3.94  -2.63
iter:  11 13:03:43 -4446.709678c -4.15  -2.75
iter:  12 13:04:33 -4446.736411c -4.33  -2.94
iter:  13 13:05:36 -4446.697240c -4.86  -2.86
iter:  14 13:06:29 -4446.690379c -4.57  -3.14
iter:  15 13:07:18 -4446.691172c -5.86  -3.44
iter:  16 13:08:02 -4446.690562c -5.72  -3.51
iter:  17 13:08:52 -4446.690212c -5.11  -3.59
iter:  18 13:09:40 -4446.688894c -6.21  -3.77
iter:  19 13:10:40 -4446.689466c -6.28  -3.79
iter:  20 13:11:34 -4446.689031c -6.19  -3.83
iter:  21 13:12:23 -4446.689050c -6.32  -3.88
iter:  22 13:13:12 -4446.689130c -6.99  -3.96
iter:  23 13:14:01 -4446.689386c -6.81  -4.15c
iter:  24 13:14:49 -4446.689369c -7.29  -4.28c
iter:  25 13:15:38 -4446.689406c -8.06c -4.33c

Converged after 25 iterations.

Dipole moment: (-31.232956, -20.592726, -0.014035) |e|*Ang

Energy contributions relative to reference atoms: (reference = -2556707.893378)

Kinetic:       +473.956884
Potential:     -504.079673
External:        +0.000000
XC:            -4415.446543
Entropy (-ST):   -0.793005
Local:           -0.723571
--------------------------
Free energy:   -4447.085908
Extrapolated:  -4446.689406

Showing only first 2 kpts
 Kpt  Band  Eigenvalues  Occupancy
  0   330      0.10087    1.69886
  0   331      0.24152    1.16042
  0   332      0.29923    0.87394
  0   333      0.31576    0.79363

  1   330     -0.03388    1.91192
  1   331      0.11915    1.64906
  1   332      0.17820    1.44495
  1   333      0.25358    1.10115


Fermi level: 0.27388

No gap

Forces in eV/Ang:
  0 Cu    0.01098    0.00790   -0.25663
  1 Cu   -0.06772    0.13246    0.10414
  2 Cu    0.10017   -0.09426   -0.45053
  3 Cu    0.01248   -0.11352   -0.62239
  4 Cu   -0.07557   -0.00470   -0.09778
  5 Cu   -0.02815   -0.01161   -0.06507
  6 Cu    0.03349   -0.00700   -0.02231
  7 Cu    0.01115   -0.04006   -0.04300
  8 Cu    0.00905    0.00743   -0.01361
  9 Cu    0.00902   -0.00827   -0.00165
 10 Cu   -0.00043    0.00424   -0.03479
 11 Cu    0.00154   -0.00569   -0.05567
 12 Cu   -0.00632    0.00952   -0.02226
 13 Cu   -0.00945    0.00634    0.00018
 14 Cu    0.00994    0.00478   -0.03285
 15 Cu    0.01038   -0.00383   -0.00648
 16 Cu   -0.02433   -0.01388    0.15546
 17 Cu    0.01136   -0.03345    0.06314
 18 Cu   -0.03303    0.01080    0.02534
 19 Cu   -0.03613   -0.01294    0.06031
 20 Cu   -0.06425    0.10395   -0.11027
 21 Cu    0.07282   -0.11995   -0.10770
 22 Cu   -0.02968   -0.12633    0.58265
 23 Cu    0.04647    0.04197    0.23257
 24 Cu    0.05976   -0.10791    0.10739
 25 Cu    0.05629    0.02539   -0.21035
 26 Cu   -0.01311    0.06215   -0.04360
 27 Cu    0.03528    0.01251   -0.05614
 28 Cu    0.00625   -0.00897    0.02171
 29 Cu    0.00817   -0.01378    0.00930
 30 Cu   -0.01000   -0.00998    0.01159
 31 Cu    0.01006   -0.01869    0.01017
 32 Cu   -0.00897    0.05275    0.10400
 33 Cu   -0.01477    0.04290    0.04529
 34 Cu   -0.00769   -0.00567    0.22543
 35 Cu    0.10570   -0.04800    0.51124
 36 Cu   -0.10819    0.05953   -0.48786
 37 Cu   -0.04828   -0.03995   -0.22375
 38 Cu    0.02198    0.01721   -0.15984
 39 Cu    0.00523   -0.05302   -0.09990
 40 Cu   -0.00967    0.01546   -0.01524
 41 Cu   -0.01189    0.00047    0.00528
 42 Cu   -0.00819    0.01432   -0.00567
 43 Cu   -0.00274    0.00180    0.05453
 44 Cu    0.07451    0.00318    0.09649
 45 Cu    0.01648   -0.06361    0.05408
 46 Cu   -0.04225   -0.02203    0.20650
 47 Cu   -0.00920    0.10989    0.60570
 48 Cu    0.01744    0.12786   -0.60328
 49 Cu   -0.01334    0.02663   -0.05828
 50 Cu   -0.01307   -0.00527    0.03403
 51 Cu   -0.00315   -0.00778    0.02771
 52 Cu    0.02956    0.00439    0.06331
 53 Cu   -0.10076    0.10293    0.44216
 54 Cl    0.20319   -0.23395    0.15680
 55 Cl   -0.24697    0.32162   -0.14126
 56 Cl   -2.37316   -1.56426   -1.34524
 57 Cl    2.39312    1.46834    1.38810
 58 Cl   -2.29325   -1.55433    1.43607
 59 Cl    2.26789    1.70233   -1.38248
 60 Cl    0.14532   -0.77872   -0.33010
 61 Cl   -0.12424    0.74557    0.27496
 62 Cl    0.31569   -0.96417    0.29823
 63 Cl   -0.27579    0.84606   -0.30313

System changes: positions 

Initializing position-dependent things.

Density initialized from wave functions
                                              
                                              
                                              
                                              
                      Cl                      
                                  Cl          
                       Cl                     
             Cl         CCl   Cu     Cu       
                   Cu     Cu    Cu            
               Cu    Cu     Cu                
                    Cu     Cu    Cu           
                Cu    Cu    Cu                
           Cu    Cu     Cu                    
                Cu     Cu    Cu               
            Cu    Cu     Cu                   
              Cu        Cu    Cu     Cu       
       Cu          CCu    Cu    Cu            
               Cu    Cu     Cu                
                    Cu     Cu    Cu           
                Cu    Cu    Cu                
           Cu    Cu     Cu                    
                Cu     Cu    Cu               
            Cu    Cu     Cu                   
       Cu     Cu   CCu         Cl             
                     Cl                       
          Cl                                  
                      Cl                      
                                              
                                              
                                              
                                              

Positions:
   0 Cu     2.885863   -0.012060   10.020756    ( 0.0000,  0.0000,  0.0000)
   1 Cu     4.164661    2.221112    9.980437    ( 0.0000,  0.0000,  0.0000)
   2 Cu     0.288851   -0.005022   10.021933    ( 0.0000,  0.0000,  0.0000)
   3 Cu     1.567175    2.247293   10.000449    ( 0.0000,  0.0000,  0.0000)
   4 Cu     2.901232    3.013346   12.124078    ( 0.0000,  0.0000,  0.0000)
   5 Cu     1.583843    0.748419   12.152266    ( 0.0000,  0.0000,  0.0000)
   6 Cu     5.504578    3.020570   12.122849    ( 0.0000,  0.0000,  0.0000)
   7 Cu     4.205487    0.768390   12.115002    ( 0.0000,  0.0000,  0.0000)
   8 Cu     5.510835    1.511404   14.274150    ( 0.0000,  0.0000,  0.0000)
   9 Cu     6.818383    3.778471   14.274405    ( 0.0000,  0.0000,  0.0000)
  10 Cu     2.895480    1.506500   14.281377    ( 0.0000,  0.0000,  0.0000)
  11 Cu     4.204910    3.779064   14.271800    ( 0.0000,  0.0000,  0.0000)
  12 Cu     2.897617   -0.005499   16.436015    ( 0.0000,  0.0000,  0.0000)
  13 Cu     4.202275    2.264086   16.409886    ( 0.0000,  0.0000,  0.0000)
  14 Cu     0.272496   -0.001071   16.409640    ( 0.0000,  0.0000,  0.0000)
  15 Cu     1.581021    2.266687   16.415855    ( 0.0000,  0.0000,  0.0000)
  16 Cu     2.898259    3.019681   18.545001    ( 0.0000,  0.0000,  0.0000)
  17 Cu     1.574653    0.754793   18.538194    ( 0.0000,  0.0000,  0.0000)
  18 Cu     5.514536    3.018521   18.559778    ( 0.0000,  0.0000,  0.0000)
  19 Cu     4.216576    0.767153   18.570389    ( 0.0000,  0.0000,  0.0000)
  20 Cu     5.475626    1.485054   20.713121    ( 0.0000,  0.0000,  0.0000)
  21 Cu     6.850443    3.812411   20.708201    ( 0.0000,  0.0000,  0.0000)
  22 Cu     2.873586    1.507452   20.688302    ( 0.0000,  0.0000,  0.0000)
  23 Cu     4.186438    3.788199   20.659791    ( 0.0000,  0.0000,  0.0000)
  24 Cu     5.540795    4.548314    9.964660    ( 0.0000,  0.0000,  0.0000)
  25 Cu     2.875732    4.522375   10.023263    ( 0.0000,  0.0000,  0.0000)
  26 Cu     4.211894    5.283333   12.122456    ( 0.0000,  0.0000,  0.0000)
  27 Cu     6.801496    5.270602   12.111079    ( 0.0000,  0.0000,  0.0000)
  28 Cu     8.122599    6.047045   14.247562    ( 0.0000,  0.0000,  0.0000)
  29 Cu     5.517499    6.045631   14.280491    ( 0.0000,  0.0000,  0.0000)
  30 Cu     5.509904    4.531217   16.409618    ( 0.0000,  0.0000,  0.0000)
  31 Cu     2.889773    4.531738   16.405145    ( 0.0000,  0.0000,  0.0000)
  32 Cu     4.203466    5.289153   18.542377    ( 0.0000,  0.0000,  0.0000)
  33 Cu     6.812580    5.270027   18.570279    ( 0.0000,  0.0000,  0.0000)
  34 Cu     8.129286    6.046144   20.660757    ( 0.0000,  0.0000,  0.0000)
  35 Cu     5.520674    6.059160   20.676175    ( 0.0000,  0.0000,  0.0000)
  36 Cu     5.493933   -0.023005   10.014529    ( 0.0000,  0.0000,  0.0000)
  37 Cu     6.832032    2.248788   10.027951    ( 0.0000,  0.0000,  0.0000)
  38 Cu     8.121612    3.021341   12.139452    ( 0.0000,  0.0000,  0.0000)
  39 Cu     6.816239    0.750428   12.141545    ( 0.0000,  0.0000,  0.0000)
  40 Cu     8.131424    1.511410   14.279223    ( 0.0000,  0.0000,  0.0000)
  41 Cu     9.439751    3.775842   14.270957    ( 0.0000,  0.0000,  0.0000)
  42 Cu     5.503177   -0.003574   16.401432    ( 0.0000,  0.0000,  0.0000)
  43 Cu     6.816383    2.263891   16.411644    ( 0.0000,  0.0000,  0.0000)
  44 Cu     8.117738    3.026708   18.561672    ( 0.0000,  0.0000,  0.0000)
  45 Cu     6.807793    0.755878   18.558179    ( 0.0000,  0.0000,  0.0000)
  46 Cu     8.141285    1.510917   20.663098    ( 0.0000,  0.0000,  0.0000)
  47 Cu     9.449651    3.788266   20.685390    ( 0.0000,  0.0000,  0.0000)
  48 Cu     8.142240    4.528140    9.990724    ( 0.0000,  0.0000,  0.0000)
  49 Cu     9.443968    5.283787   12.145854    ( 0.0000,  0.0000,  0.0000)
  50 Cu    10.748738    6.043275   14.272627    ( 0.0000,  0.0000,  0.0000)
  51 Cu     8.125281    4.536265   16.404790    ( 0.0000,  0.0000,  0.0000)
  52 Cu     9.436143    5.291480   18.531796    ( 0.0000,  0.0000,  0.0000)
  53 Cu    10.731376    6.042120   20.663953    ( 0.0000,  0.0000,  0.0000)
  54 Cl     6.167778    2.636430   22.663553    ( 0.0000,  0.0000,  0.0000)
  55 Cl     4.831587    3.398708    8.008913    ( 0.0000,  0.0000,  0.0000)
  56 Cl     9.768565    4.719737   22.978598    ( 0.0000,  0.0000,  0.0000)
  57 Cl     1.254557    1.309957    7.707131    ( 0.0000,  0.0000,  0.0000)
  58 Cl     8.543993    5.509556    7.707018    ( 0.0000,  0.0000,  0.0000)
  59 Cl     2.388202    0.520115   23.019978    ( 0.0000,  0.0000,  0.0000)
  60 Cl     4.931142    4.768243   23.053998    ( 0.0000,  0.0000,  0.0000)
  61 Cl     6.091015    1.311348    7.625260    ( 0.0000,  0.0000,  0.0000)
  62 Cl     3.613987    5.708917    7.614086    ( 0.0000,  0.0000,  0.0000)
  63 Cl     7.283072    0.338012   23.102010    ( 0.0000,  0.0000,  0.0000)

Unit cell:
           periodic     x           y           z      points  spacing
  1. axis:    yes    7.851007    0.000000    0.000000    45     0.1511
  2. axis:    yes    3.925503    6.799171    0.000000    45     0.1511
  3. axis:    yes    0.000000    0.000000   30.683867   175     0.1753

  Lengths:   7.851007   7.851006  30.683867
  Angles:   90.000000  90.000000  60.000001

Effective grid spacing dv^(1/3) = 0.1666

     iter     time        total  log10-change:
                         energy  eigst   dens
iter:   1 13:16:53 -4456.380293  -1.77
iter:   2 13:17:41 -4457.189501  -1.53  -1.62
iter:   3 13:18:29 -4449.323152  -2.36  -1.81
iter:   4 13:19:18 -4449.237627  -3.64  -2.47
iter:   5 13:20:06 -4449.222447c -3.90  -2.53
iter:   6 13:21:09 -4449.078883c -3.55  -2.52
iter:   7 13:21:58 -4449.075264c -4.12  -2.72
iter:   8 13:23:02 -4449.078959c -4.12  -2.82
iter:   9 13:23:58 -4449.047253c -4.18  -2.91
iter:  10 13:24:58 -4449.042007c -4.97  -3.09
iter:  11 13:25:47 -4449.041307c -5.14  -3.26
iter:  12 13:26:35 -4449.040491c -5.39  -3.41
iter:  13 13:27:24 -4449.039725c -5.39  -3.58
iter:  14 13:28:14 -4449.039145c -5.66  -3.55
iter:  15 13:29:02 -4449.039400c -6.02  -3.85
iter:  16 13:29:55 -4449.039218c -6.79  -3.98
iter:  17 13:30:43 -4449.038913c -6.66  -4.01c
iter:  18 13:31:32 -4449.038781c -6.96  -4.22c
iter:  19 13:32:27 -4449.039022c -6.83  -4.30c
iter:  20 13:33:26 -4449.039110c -7.35  -4.38c
iter:  21 13:34:18 -4449.039061c -8.42c -4.69c

Converged after 21 iterations.

Dipole moment: (-33.412261, -18.120521, -0.018593) |e|*Ang

Energy contributions relative to reference atoms: (reference = -2556707.893378)

Kinetic:       +460.411824
Potential:     -494.483684
External:        +0.000000
XC:            -4413.938388
Entropy (-ST):   -0.638218
Local:           -0.709704
--------------------------
Free energy:   -4449.358170
Extrapolated:  -4449.039061

Showing only first 2 kpts
 Kpt  Band  Eigenvalues  Occupancy
  0   330     -0.01700    1.75998
  0   331      0.15603    1.13030
  0   332      0.21849    0.82070
  0   333      0.24313    0.70461

  1   330     -0.17045    1.94288
  1   331     -0.09379    1.88098
  1   332     -0.05536    1.82996
  1   333      0.18025    1.00993


Fermi level: 0.18224

No gap

Forces in eV/Ang:
  0 Cu   -0.00130    0.01927   -0.34861
  1 Cu   -0.03629    0.09384    0.10177
  2 Cu    0.00765   -0.08950   -0.57421
  3 Cu    0.01231   -0.13583   -0.69199
  4 Cu   -0.08962   -0.00155   -0.08308
  5 Cu   -0.01631    0.00662   -0.08424
  6 Cu    0.02928   -0.00374   -0.02014
  7 Cu    0.00305   -0.03679   -0.02977
  8 Cu    0.00680    0.01013   -0.02567
  9 Cu    0.00977   -0.00931   -0.01145
 10 Cu    0.00230    0.01221   -0.04459
 11 Cu    0.00033   -0.00777   -0.05888
 12 Cu   -0.00541    0.00944   -0.01407
 13 Cu   -0.01089    0.00692    0.01206
 14 Cu    0.00421    0.00251   -0.00764
 15 Cu    0.01032    0.00121    0.00571
 16 Cu   -0.03755   -0.02419    0.18875
 17 Cu    0.01931   -0.01430    0.09562
 18 Cu   -0.02925    0.00769    0.02317
 19 Cu   -0.04441   -0.00528    0.06181
 20 Cu   -0.05800    0.05958   -0.13702
 21 Cu    0.05001   -0.07510   -0.11746
 22 Cu   -0.03578   -0.14955    0.69565
 23 Cu    0.01959    0.11389    0.26151
 24 Cu    0.04400   -0.07029    0.12030
 25 Cu    0.02971    0.13956   -0.28580
 26 Cu   -0.01066    0.03767   -0.03485
 27 Cu    0.04569    0.00703   -0.05628
 28 Cu    0.00483   -0.00907    0.01462
 29 Cu    0.00351   -0.01676    0.00003
 30 Cu   -0.00777   -0.01163    0.02576
 31 Cu    0.00895   -0.01968    0.02648
 32 Cu   -0.00379    0.04000    0.11432
 33 Cu   -0.00782    0.03689    0.03583
 34 Cu    0.00737   -0.01673    0.31857
 35 Cu    0.02027   -0.02903    0.57285
 36 Cu   -0.00651    0.03727   -0.54697
 37 Cu   -0.02527   -0.11696   -0.25253
 38 Cu    0.03723    0.02673   -0.19129
 39 Cu    0.00203   -0.04035   -0.10454
 40 Cu   -0.00910    0.01666   -0.02961
 41 Cu   -0.01130   -0.00532   -0.00597
 42 Cu   -0.00356    0.01663    0.00580
 43 Cu   -0.00160    0.00325    0.06086
 44 Cu    0.08716    0.00121    0.08679
 45 Cu    0.01281   -0.03861    0.04876
 46 Cu   -0.01177   -0.11814    0.25999
 47 Cu   -0.00767    0.13382    0.68479
 48 Cu    0.01371    0.13440   -0.66937
 49 Cu   -0.02231    0.00659   -0.08732
 50 Cu   -0.00667   -0.00275    0.00912
 51 Cu   -0.00518   -0.01431    0.03857
 52 Cu    0.01767   -0.01180    0.08380
 53 Cu   -0.02651    0.08859    0.55215
 54 Cl    0.20605   -0.24625    0.36949
 55 Cl   -0.27855    0.38040   -0.32022
 56 Cl   -1.51207   -1.12484   -1.54417
 57 Cl    1.48863    1.01281    1.56600
 58 Cl   -1.50747   -0.84939    1.59695
 59 Cl    1.50535    1.05285   -1.62685
 60 Cl   -0.31072   -0.00377   -0.46052
 61 Cl    0.31114   -0.20061    0.39457
 62 Cl    0.00429   -0.31642    0.58060
 63 Cl    0.11007    0.30381   -0.54374

System changes: positions 

Initializing position-dependent things.

Density initialized from wave functions
                                              
                                              
                                              
                                              
                      Cl                      
                                 Cl           
                       Cl                     
             Cl         CCl   Cu     Cu       
                   Cu     Cu    Cu            
               Cu    Cu     Cu                
                    Cu     Cu    Cu           
               Cu     Cu     Cu               
           Cu    Cu     Cu                    
                Cu     Cu    Cu               
            Cu    Cu     Cu                   
              Cu        Cu    Cu     Cu       
       Cu          CCu    Cu    Cu            
               Cu    Cu     Cu                
                    Cu     Cu    Cu           
               Cu     Cu     Cu               
           Cu    Cu     Cu                    
                Cu     Cu    Cu               
            Cu    Cu     Cu                   
       Cu     Cu   CCu         Cl             
                     Cl                       
           Cl                                 
                      Cl                      
                                              
                                              
                                              
                                              

Positions:
   0 Cu     2.886038   -0.010952    9.997889    ( 0.0000,  0.0000,  0.0000)
   1 Cu     4.160871    2.228791    9.988398    ( 0.0000,  0.0000,  0.0000)
   2 Cu     0.292295   -0.011939    9.985347    ( 0.0000,  0.0000,  0.0000)
   3 Cu     1.568524    2.238705    9.952850    ( 0.0000,  0.0000,  0.0000)
   4 Cu     2.895163    3.013204   12.117799    ( 0.0000,  0.0000,  0.0000)
   5 Cu     1.582355    0.748403   12.146651    ( 0.0000,  0.0000,  0.0000)
   6 Cu     5.506780    3.020232   12.121433    ( 0.0000,  0.0000,  0.0000)
   7 Cu     4.205933    0.765620   12.112469    ( 0.0000,  0.0000,  0.0000)
   8 Cu     5.511397    1.512034   14.272695    ( 0.0000,  0.0000,  0.0000)
   9 Cu     6.819065    3.777803   14.273931    ( 0.0000,  0.0000,  0.0000)
  10 Cu     2.895592    1.507143   14.278479    ( 0.0000,  0.0000,  0.0000)
  11 Cu     4.204955    3.778593   14.267698    ( 0.0000,  0.0000,  0.0000)
  12 Cu     2.897187   -0.004827   16.434688    ( 0.0000,  0.0000,  0.0000)
  13 Cu     4.201539    2.264591   16.410408    ( 0.0000,  0.0000,  0.0000)
  14 Cu     0.272945   -0.000829   16.408381    ( 0.0000,  0.0000,  0.0000)
  15 Cu     1.581763    2.266606   16.415871    ( 0.0000,  0.0000,  0.0000)
  16 Cu     2.895927    3.018253   18.557847    ( 0.0000,  0.0000,  0.0000)
  17 Cu     1.575835    0.753222   18.544331    ( 0.0000,  0.0000,  0.0000)
  18 Cu     5.512344    3.019153   18.561459    ( 0.0000,  0.0000,  0.0000)
  19 Cu     4.213580    0.766512   18.574768    ( 0.0000,  0.0000,  0.0000)
  20 Cu     5.471125    1.490464   20.703667    ( 0.0000,  0.0000,  0.0000)
  21 Cu     6.854898    3.805850   20.699677    ( 0.0000,  0.0000,  0.0000)
  22 Cu     2.871559    1.497687   20.735573    ( 0.0000,  0.0000,  0.0000)
  23 Cu     4.188692    3.794167   20.677393    ( 0.0000,  0.0000,  0.0000)
  24 Cu     5.544584    4.542469    9.973457    ( 0.0000,  0.0000,  0.0000)
  25 Cu     2.878671    4.529024   10.005207    ( 0.0000,  0.0000,  0.0000)
  26 Cu     4.211070    5.286656   12.119755    ( 0.0000,  0.0000,  0.0000)
  27 Cu     6.804537    5.271322   12.107056    ( 0.0000,  0.0000,  0.0000)
  28 Cu     8.122995    6.046412   14.248940    ( 0.0000,  0.0000,  0.0000)
  29 Cu     5.517834    6.044469   14.280832    ( 0.0000,  0.0000,  0.0000)
  30 Cu     5.509257    4.530428   16.411069    ( 0.0000,  0.0000,  0.0000)
  31 Cu     2.890481    4.530379   16.406526    ( 0.0000,  0.0000,  0.0000)
  32 Cu     4.203042    5.292364   18.550414    ( 0.0000,  0.0000,  0.0000)
  33 Cu     6.811827    5.272868   18.573123    ( 0.0000,  0.0000,  0.0000)
  34 Cu     8.129421    6.045225   20.681490    ( 0.0000,  0.0000,  0.0000)
  35 Cu     5.524771    6.056401   20.714710    ( 0.0000,  0.0000,  0.0000)
  36 Cu     5.490313   -0.019589    9.978230    ( 0.0000,  0.0000,  0.0000)
  37 Cu     6.829581    2.242777   10.011230    ( 0.0000,  0.0000,  0.0000)
  38 Cu     8.123880    3.022972   12.126378    ( 0.0000,  0.0000,  0.0000)
  39 Cu     6.816486    0.747197   12.134054    ( 0.0000,  0.0000,  0.0000)
  40 Cu     8.130706    1.512538   14.277591    ( 0.0000,  0.0000,  0.0000)
  41 Cu     9.438914    3.775628   14.270943    ( 0.0000,  0.0000,  0.0000)
  42 Cu     5.502827   -0.002420   16.401511    ( 0.0000,  0.0000,  0.0000)
  43 Cu     6.816235    2.264043   16.415847    ( 0.0000,  0.0000,  0.0000)
  44 Cu     8.123663    3.026804   18.568083    ( 0.0000,  0.0000,  0.0000)
  45 Cu     6.808809    0.752467   18.561805    ( 0.0000,  0.0000,  0.0000)
  46 Cu     8.139497    1.505298   20.680065    ( 0.0000,  0.0000,  0.0000)
  47 Cu     9.448620    3.796725   20.732452    ( 0.0000,  0.0000,  0.0000)
  48 Cu     8.142899    4.537024    9.944617    ( 0.0000,  0.0000,  0.0000)
  49 Cu     9.442601    5.284813   12.140265    ( 0.0000,  0.0000,  0.0000)
  50 Cu    10.748090    6.043017   14.274032    ( 0.0000,  0.0000,  0.0000)
  51 Cu     8.124944    4.535434   16.407265    ( 0.0000,  0.0000,  0.0000)
  52 Cu     9.437730    5.291070   18.537379    ( 0.0000,  0.0000,  0.0000)
  53 Cu    10.727212    6.049212   20.699758    ( 0.0000,  0.0000,  0.0000)
  54 Cl     6.183229    2.617490   22.685207    ( 0.0000,  0.0000,  0.0000)
  55 Cl     4.811651    3.426302    7.988787    ( 0.0000,  0.0000,  0.0000)
  56 Cl     9.628264    4.624179   22.874316    ( 0.0000,  0.0000,  0.0000)
  57 Cl     1.394360    1.397909    7.812924    ( 0.0000,  0.0000,  0.0000)
  58 Cl     8.406772    5.423765    7.815415    ( 0.0000,  0.0000,  0.0000)
  59 Cl     2.524840    0.617193   22.910863    ( 0.0000,  0.0000,  0.0000)
  60 Cl     4.925989    4.743956   23.025764    ( 0.0000,  0.0000,  0.0000)
  61 Cl     6.096926    1.329905    7.648561    ( 0.0000,  0.0000,  0.0000)
  62 Cl     3.627356    5.662894    7.647465    ( 0.0000,  0.0000,  0.0000)
  63 Cl     7.275626    0.377875   23.070172    ( 0.0000,  0.0000,  0.0000)

Unit cell:
           periodic     x           y           z      points  spacing
  1. axis:    yes    7.851007    0.000000    0.000000    45     0.1511
  2. axis:    yes    3.925503    6.799171    0.000000    45     0.1511
  3. axis:    yes    0.000000    0.000000   30.683867   175     0.1753

  Lengths:   7.851007   7.851006  30.683867
  Angles:   90.000000  90.000000  60.000001

Effective grid spacing dv^(1/3) = 0.1666

     iter     time        total  log10-change:
                         energy  eigst   dens
iter:   1 13:35:29 -4477.406165  -1.44
iter:   2 13:36:11 -4472.338375  -0.95  -1.35
iter:   3 13:36:52 -4451.494901  -1.74  -1.63
iter:   4 13:37:43 -4451.187535  -3.28  -2.30
iter:   5 13:38:41 -4451.157499  -3.11  -2.37
iter:   6 13:39:29 -4451.012712c -3.53  -2.45
iter:   7 13:40:20 -4451.019465c -3.71  -2.62
iter:   8 13:41:09 -4451.005131c -3.68  -2.67
iter:   9 13:41:58 -4450.932796c -3.82  -2.72
iter:  10 13:42:48 -4450.930720c -4.83  -3.12
iter:  11 13:43:44 -4450.927351c -4.91  -3.17
iter:  12 13:44:34 -4450.928621c -4.87  -3.32
iter:  13 13:45:23 -4450.927559c -5.43  -3.52
iter:  14 13:46:11 -4450.928169c -4.91  -3.64
iter:  15 13:47:00 -4450.927750c -5.76  -3.83
iter:  16 13:47:49 -4450.927611c -6.17  -3.87
iter:  17 13:48:38 -4450.927103c -6.18  -3.94
iter:  18 13:49:37 -4450.926850c -6.04  -4.03c
iter:  19 13:50:28 -4450.926796c -6.60  -4.15c
iter:  20 13:51:35 -4450.926617c -7.12  -4.27c
iter:  21 13:52:38 -4450.926773c -7.31  -4.46c
iter:  22 13:53:26 -4450.926711c -6.71  -4.48c
iter:  23 13:54:13 -4450.926671c -7.37  -4.60c
iter:  24 13:54:55 -4450.926734c -7.55c -4.72c

Converged after 24 iterations.

Dipole moment: (-31.950520, -15.651954, -0.024612) |e|*Ang

Energy contributions relative to reference atoms: (reference = -2556707.893378)

Kinetic:       +461.956071
Potential:     -496.629499
External:        +0.000000
XC:            -4415.241850
Entropy (-ST):   -0.592518
Local:           -0.715197
--------------------------
Free energy:   -4451.222994
Extrapolated:  -4450.926734

Showing only first 2 kpts
 Kpt  Band  Eigenvalues  Occupancy
  0   330      0.10062    1.76692
  0   331      0.27258    1.15182
  0   332      0.34499    0.79392
  0   333      0.37633    0.64970

  1   330     -0.16668    1.98195
  1   331     -0.04686    1.94140
  1   332      0.07177    1.82007
  1   333      0.29570    1.03735


Fermi level: 0.30318

No gap

Forces in eV/Ang:
  0 Cu   -0.00554    0.02033   -0.24895
  1 Cu    0.01831    0.09575    0.08818
  2 Cu   -0.02921   -0.10458   -0.37253
  3 Cu    0.06546    0.07004   -0.18870
  4 Cu   -0.09502    0.01149   -0.11082
  5 Cu   -0.01750    0.00815   -0.14816
  6 Cu    0.03077   -0.00954   -0.02924
  7 Cu    0.00404   -0.04537   -0.06422
  8 Cu    0.00794    0.00719   -0.02719
  9 Cu    0.01116   -0.00929   -0.01974
 10 Cu    0.00146    0.01192   -0.04777
 11 Cu   -0.00322   -0.00454   -0.05000
 12 Cu   -0.00657    0.00855   -0.00609
 13 Cu   -0.01261    0.00655    0.01714
 14 Cu    0.00115    0.00135    0.01251
 15 Cu    0.00893   -0.00044    0.01609
 16 Cu   -0.04218   -0.03187    0.25301
 17 Cu    0.02826   -0.00738    0.14931
 18 Cu   -0.03153    0.01270    0.02996
 19 Cu   -0.05983   -0.00863    0.08288
 20 Cu   -0.03427    0.08630   -0.14755
 21 Cu   -0.00178   -0.08691   -0.10614
 22 Cu    0.04328    0.00581    0.36748
 23 Cu    0.03220    0.09258    0.16795
 24 Cu    0.02646   -0.09049    0.14511
 25 Cu    0.02553    0.10747   -0.15165
 26 Cu   -0.01212    0.03126   -0.06877
 27 Cu    0.05656    0.01300   -0.07974
 28 Cu    0.00634   -0.00864    0.00537
 29 Cu   -0.00132   -0.01336   -0.01167
 30 Cu   -0.00877   -0.00794    0.02588
 31 Cu    0.00816   -0.01555    0.04110
 32 Cu   -0.00508    0.03461    0.14980
 33 Cu   -0.00869    0.04514    0.06616
 34 Cu    0.00992   -0.01672    0.23295
 35 Cu   -0.02093   -0.08439    0.38642
 36 Cu    0.03646    0.09787   -0.35976
 37 Cu   -0.04481   -0.09851   -0.17015
 38 Cu    0.04254    0.02951   -0.25307
 39 Cu    0.00554   -0.03534   -0.14138
 40 Cu   -0.00861    0.01281   -0.04530
 41 Cu   -0.00962   -0.00282   -0.01898
 42 Cu    0.00072    0.01318    0.01487
 43 Cu    0.00225    0.00080    0.05035
 44 Cu    0.09348   -0.01038    0.11019
 45 Cu    0.01430   -0.03089    0.07606
 46 Cu   -0.02050   -0.09337    0.14166
 47 Cu   -0.06303   -0.06674    0.19671
 48 Cu   -0.06234   -0.07334   -0.20585
 49 Cu   -0.02830    0.00235   -0.14525
 50 Cu   -0.00299   -0.00214   -0.01250
 51 Cu   -0.00365   -0.01368    0.04142
 52 Cu    0.01808   -0.01315    0.14134
 53 Cu    0.01261    0.10691    0.37426
 54 Cl    0.09149   -0.11200    0.34238
 55 Cl   -0.12536    0.17769   -0.29162
 56 Cl   -0.99124   -0.55755   -0.99052
 57 Cl    0.95947    0.47391    0.98397
 58 Cl   -0.96347   -0.38882    1.02704
 59 Cl    0.99167    0.57247   -1.22720
 60 Cl   -0.43413    0.35389   -0.43667
 61 Cl    0.38300   -0.46171    0.40913
 62 Cl   -0.22126    0.19035    0.49644
 63 Cl    0.33488   -0.19621   -0.48160

System changes: positions 

Initializing position-dependent things.

Density initialized from wave functions
                                              
                                              
                                              
                                              
                                              
                      Cl         Cl           
                       Cl                     
              Cl        CCl   Cu     Cu       
                   Cu     Cu    Cu            
               Cu    Cu     Cu                
                    Cu     Cu    Cu           
               Cu     Cu     Cu               
           Cu    Cu     Cu                    
                Cu     Cu    Cu               
            Cu    Cu     Cu                   
       Cu     Cu        Cu    Cu     Cu       
                   CCu    Cu    Cu            
               Cu    Cu     Cu                
                    Cu     Cu    Cu           
               Cu     Cu     Cu               
           Cu    Cu     Cu                    
                Cu     Cu    Cu               
            Cu    Cu     Cu                   
              Cu   Cl         Cl              
       Cu           Cu                        
           Cl                                 
                      Cl                      
                                              
                                              
                                              
                                              

Positions:
   0 Cu     2.886213   -0.009843    9.975021    ( 0.0000,  0.0000,  0.0000)
   1 Cu     4.157081    2.236470    9.996359    ( 0.0000,  0.0000,  0.0000)
   2 Cu     0.295739   -0.018856    9.948760    ( 0.0000,  0.0000,  0.0000)
   3 Cu     1.569873    2.230117    9.905251    ( 0.0000,  0.0000,  0.0000)
   4 Cu     2.889094    3.013063   12.111521    ( 0.0000,  0.0000,  0.0000)
   5 Cu     1.580868    0.748388   12.141037    ( 0.0000,  0.0000,  0.0000)
   6 Cu     5.508983    3.019893   12.120017    ( 0.0000,  0.0000,  0.0000)
   7 Cu     4.206378    0.762850   12.109936    ( 0.0000,  0.0000,  0.0000)
   8 Cu     5.511958    1.512663   14.271240    ( 0.0000,  0.0000,  0.0000)
   9 Cu     6.819747    3.777136   14.273458    ( 0.0000,  0.0000,  0.0000)
  10 Cu     2.895703    1.507787   14.275582    ( 0.0000,  0.0000,  0.0000)
  11 Cu     4.204999    3.778121   14.263595    ( 0.0000,  0.0000,  0.0000)
  12 Cu     2.896756   -0.004155   16.433360    ( 0.0000,  0.0000,  0.0000)
  13 Cu     4.200802    2.265096   16.410930    ( 0.0000,  0.0000,  0.0000)
  14 Cu     0.273395   -0.000587   16.407123    ( 0.0000,  0.0000,  0.0000)
  15 Cu     1.582504    2.266525   16.415887    ( 0.0000,  0.0000,  0.0000)
  16 Cu     2.893594    3.016824   18.570693    ( 0.0000,  0.0000,  0.0000)
  17 Cu     1.577017    0.751652   18.550468    ( 0.0000,  0.0000,  0.0000)
  18 Cu     5.510152    3.019784   18.563139    ( 0.0000,  0.0000,  0.0000)
  19 Cu     4.210584    0.765872   18.579147    ( 0.0000,  0.0000,  0.0000)
  20 Cu     5.466625    1.495875   20.694214    ( 0.0000,  0.0000,  0.0000)
  21 Cu     6.859353    3.799289   20.691153    ( 0.0000,  0.0000,  0.0000)
  22 Cu     2.869531    1.487923   20.782844    ( 0.0000,  0.0000,  0.0000)
  23 Cu     4.190947    3.800135   20.694996    ( 0.0000,  0.0000,  0.0000)
  24 Cu     5.548372    4.536624    9.982254    ( 0.0000,  0.0000,  0.0000)
  25 Cu     2.881611    4.535673    9.987151    ( 0.0000,  0.0000,  0.0000)
  26 Cu     4.210247    5.289979   12.117054    ( 0.0000,  0.0000,  0.0000)
  27 Cu     6.807578    5.272042   12.103033    ( 0.0000,  0.0000,  0.0000)
  28 Cu     8.123392    6.045779   14.250318    ( 0.0000,  0.0000,  0.0000)
  29 Cu     5.518169    6.043307   14.281173    ( 0.0000,  0.0000,  0.0000)
  30 Cu     5.508611    4.529639   16.412520    ( 0.0000,  0.0000,  0.0000)
  31 Cu     2.891188    4.529020   16.407907    ( 0.0000,  0.0000,  0.0000)
  32 Cu     4.202618    5.295576   18.558451    ( 0.0000,  0.0000,  0.0000)
  33 Cu     6.811074    5.275710   18.575968    ( 0.0000,  0.0000,  0.0000)
  34 Cu     8.129556    6.044307   20.702222    ( 0.0000,  0.0000,  0.0000)
  35 Cu     5.528868    6.053642   20.753244    ( 0.0000,  0.0000,  0.0000)
  36 Cu     5.486694   -0.016173    9.941932    ( 0.0000,  0.0000,  0.0000)
  37 Cu     6.827130    2.236766    9.994508    ( 0.0000,  0.0000,  0.0000)
  38 Cu     8.126148    3.024604   12.113304    ( 0.0000,  0.0000,  0.0000)
  39 Cu     6.816733    0.743967   12.126563    ( 0.0000,  0.0000,  0.0000)
  40 Cu     8.129988    1.513666   14.275959    ( 0.0000,  0.0000,  0.0000)
  41 Cu     9.438076    3.775415   14.270930    ( 0.0000,  0.0000,  0.0000)
  42 Cu     5.502476   -0.001266   16.401590    ( 0.0000,  0.0000,  0.0000)
  43 Cu     6.816087    2.264194   16.420049    ( 0.0000,  0.0000,  0.0000)
  44 Cu     8.129587    3.026899   18.574494    ( 0.0000,  0.0000,  0.0000)
  45 Cu     6.809824    0.749055   18.565431    ( 0.0000,  0.0000,  0.0000)
  46 Cu     8.137708    1.499679   20.697032    ( 0.0000,  0.0000,  0.0000)
  47 Cu     9.447589    3.805184   20.779514    ( 0.0000,  0.0000,  0.0000)
  48 Cu     8.143559    4.545908    9.898511    ( 0.0000,  0.0000,  0.0000)
  49 Cu     9.441235    5.285838   12.134676    ( 0.0000,  0.0000,  0.0000)
  50 Cu    10.747442    6.042758   14.275437    ( 0.0000,  0.0000,  0.0000)
  51 Cu     8.124608    4.534603   16.409740    ( 0.0000,  0.0000,  0.0000)
  52 Cu     9.439316    5.290659   18.542961    ( 0.0000,  0.0000,  0.0000)
  53 Cu    10.723048    6.056304   20.735564    ( 0.0000,  0.0000,  0.0000)
  54 Cl     6.198679    2.598549   22.706860    ( 0.0000,  0.0000,  0.0000)
  55 Cl     4.791716    3.453896    7.968662    ( 0.0000,  0.0000,  0.0000)
  56 Cl     9.487963    4.528620   22.770035    ( 0.0000,  0.0000,  0.0000)
  57 Cl     1.534163    1.485861    7.918717    ( 0.0000,  0.0000,  0.0000)
  58 Cl     8.269552    5.337974    7.923813    ( 0.0000,  0.0000,  0.0000)
  59 Cl     2.661477    0.714271   22.801748    ( 0.0000,  0.0000,  0.0000)
  60 Cl     4.920836    4.719668   22.997530    ( 0.0000,  0.0000,  0.0000)
  61 Cl     6.102838    1.348462    7.671862    ( 0.0000,  0.0000,  0.0000)
  62 Cl     3.640725    5.616871    7.680845    ( 0.0000,  0.0000,  0.0000)
  63 Cl     7.268180    0.417737   23.038334    ( 0.0000,  0.0000,  0.0000)

Unit cell:
           periodic     x           y           z      points  spacing
  1. axis:    yes    7.851007    0.000000    0.000000    45     0.1511
  2. axis:    yes    3.925503    6.799171    0.000000    45     0.1511
  3. axis:    yes    0.000000    0.000000   30.683867   175     0.1753

  Lengths:   7.851007   7.851006  30.683867
  Angles:   90.000000  90.000000  60.000001

Effective grid spacing dv^(1/3) = 0.1666

     iter     time        total  log10-change:
                         energy  eigst   dens
iter:   1 13:56:01 -4474.607971  -1.41
iter:   2 13:56:45 -4467.470393  -1.05  -1.41
iter:   3 13:57:33 -4452.201195  -1.87  -1.69
iter:   4 13:58:39 -4453.222860  -2.79  -2.28
iter:   5 13:59:39 -4451.783013  -3.57  -2.12
iter:   6 14:00:28 -4451.657214  -3.81  -2.47
iter:   7 14:01:16 -4451.661722c -3.29  -2.63
iter:   8 14:02:05 -4451.618500c -3.94  -2.74
iter:   9 14:02:54 -4451.603825c -4.63  -2.95
iter:  10 14:03:42 -4451.594026c -4.64  -3.03
iter:  11 14:04:32 -4451.589667c -4.53  -3.10
iter:  12 14:05:20 -4451.584271c -5.56  -3.16
iter:  13 14:06:09 -4451.580386c -5.01  -3.28
iter:  14 14:06:58 -4451.581987c -5.40  -3.40
iter:  15 14:07:46 -4451.580748c -5.71  -3.54
iter:  16 14:08:35 -4451.580197c -5.87  -3.72
iter:  17 14:09:24 -4451.580246c -5.74  -3.70
iter:  18 14:10:23 -4451.580080c -6.92  -4.20c
iter:  19 14:11:18 -4451.579951c -6.70  -4.25c
iter:  20 14:12:15 -4451.579909c -6.45  -4.35c
iter:  21 14:13:08 -4451.580059c -6.41  -4.29c
iter:  22 14:13:58 -4451.580011c -7.52c -4.38c

Converged after 22 iterations.

Dipole moment: (-30.062323, -13.339965, -0.022968) |e|*Ang

Energy contributions relative to reference atoms: (reference = -2556707.893378)

Kinetic:       +475.655120
Potential:     -508.188547
External:        +0.000000
XC:            -4418.042862
Entropy (-ST):   -0.599954
Local:           -0.703745
--------------------------
Free energy:   -4451.879988
Extrapolated:  -4451.580011

Showing only first 2 kpts
 Kpt  Band  Eigenvalues  Occupancy
  0   330      0.26662    1.76253
  0   331      0.43554    1.15636
  0   332      0.50946    0.79117
  0   333      0.54768    0.61744

  1   330     -0.01970    1.98473
  1   331      0.11485    1.94262
  1   332      0.25592    1.78402
  1   333      0.44400    1.11482


Fermi level: 0.46707

No gap

Forces in eV/Ang:
  0 Cu   -0.00809    0.01561   -0.08643
  1 Cu    0.07754    0.08925    0.10267
  2 Cu   -0.07771   -0.11817   -0.12647
  3 Cu    0.08300    0.57697    1.18906
  4 Cu   -0.09281    0.03035   -0.11917
  5 Cu   -0.01941    0.00707   -0.19867
  6 Cu    0.03053   -0.01642   -0.03302
  7 Cu    0.00482   -0.05183   -0.09138
  8 Cu    0.01019    0.00245   -0.03049
  9 Cu    0.01293   -0.00943   -0.03031
 10 Cu   -0.00009    0.01171   -0.05340
 11 Cu   -0.00828   -0.00003   -0.04093
 12 Cu   -0.00825    0.00716    0.00878
 13 Cu   -0.01405    0.00648    0.03062
 14 Cu   -0.00286   -0.00040    0.04343
 15 Cu    0.00624   -0.00228    0.03512
 16 Cu   -0.04138   -0.03097    0.29848
 17 Cu    0.03333    0.00050    0.19372
 18 Cu   -0.03169    0.01857    0.03241
 19 Cu   -0.06926   -0.01633    0.08659
 20 Cu   -0.00918    0.10541   -0.18450
 21 Cu   -0.05812   -0.08880   -0.12226
 22 Cu    0.17820    0.43123   -0.72819
 23 Cu    0.04263    0.07649    0.04048
 24 Cu    0.00617   -0.10583    0.19540
 25 Cu    0.01553    0.07411    0.03193
 26 Cu   -0.01240    0.02041   -0.10045
 27 Cu    0.06110    0.02332   -0.08604
 28 Cu    0.00812   -0.00778   -0.00595
 29 Cu   -0.00729   -0.00925   -0.02561
 30 Cu   -0.01130   -0.00319    0.03351
 31 Cu    0.00765   -0.00985    0.06188
 32 Cu   -0.00854    0.02303    0.17850
 33 Cu   -0.00894    0.05158    0.08818
 34 Cu    0.00982   -0.00876    0.08126
 35 Cu   -0.07693   -0.15652    0.16170
 36 Cu    0.09290    0.17269   -0.14451
 37 Cu   -0.06173   -0.08873   -0.06189
 38 Cu    0.04285    0.02419   -0.29718
 39 Cu    0.01054   -0.02452   -0.17253
 40 Cu   -0.00865    0.00770   -0.06168
 41 Cu   -0.00709   -0.00064   -0.03422
 42 Cu    0.00602    0.00833    0.03219
 43 Cu    0.00682   -0.00300    0.04428
 44 Cu    0.09194   -0.02766    0.11285
 45 Cu    0.01441   -0.01823    0.10035
 46 Cu   -0.02826   -0.06655   -0.02640
 47 Cu   -0.08633   -0.56590   -1.20452
 48 Cu   -0.15218   -0.60029    1.11240
 49 Cu   -0.02970   -0.00280   -0.19330
 50 Cu    0.00149   -0.00102   -0.03944
 51 Cu   -0.00137   -0.01270    0.05286
 52 Cu    0.01946   -0.01196    0.18738
 53 Cu    0.06493    0.12685    0.14294
 54 Cl   -0.05328    0.09273    0.32919
 55 Cl    0.07821   -0.12072   -0.29018
 56 Cl   -0.58508    0.22596    0.61067
 57 Cl    0.56390   -0.26784   -0.59255
 58 Cl   -0.51312    0.29283   -0.51336
 59 Cl    0.51728   -0.07084    0.08250
 60 Cl   -0.49762    0.62764   -0.37919
 61 Cl    0.42502   -0.63805    0.39464
 62 Cl   -0.47576    0.72700    0.31268
 63 Cl    0.54166   -0.72045   -0.32630

System changes: positions 

Initializing position-dependent things.

Density initialized from wave functions
                                              
                                              
                                              
                                              
                                              
                     Cl         Cl            
                       Clu           Cu       
              Cl         Cl   Cu              
                   Cu     Cu    Cu            
               Cu    Cu     Cu                
                    Cu     Cu    Cu           
               Cu     Cu     Cu               
           Cu    Cu     Cu                    
                Cu     Cu    Cu               
            Cu    Cu     Cu                   
       Cu     Cu    Cu  Cu    Cu     Cu       
                   Cu     Cu    Cu            
               Cu    Cu     Cu                
                    Cu     Cu    Cu           
               Cu     Cu     Cu               
           Cu    Cu     Cu                    
                Cu     Cu    Cu               
            Cu    Cu     Cu                   
                   Cl         Cl              
       Cu     Cu    Cu                        
           Cl                                 
                       Cl                     
                                              
                                              
                                              
                                              

Positions:
   0 Cu     2.885535   -0.007938    9.957580    ( 0.0000,  0.0000,  0.0000)
   1 Cu     4.162714    2.247932   10.009182    ( 0.0000,  0.0000,  0.0000)
   2 Cu     0.289958   -0.032687    9.921960    ( 0.0000,  0.0000,  0.0000)
   3 Cu     1.578143    2.280182    9.996102    ( 0.0000,  0.0000,  0.0000)
   4 Cu     2.877973    3.015824   12.097861    ( 0.0000,  0.0000,  0.0000)
   5 Cu     1.578449    0.749035   12.120270    ( 0.0000,  0.0000,  0.0000)
   6 Cu     5.512727    3.018228   12.116366    ( 0.0000,  0.0000,  0.0000)
   7 Cu     4.207011    0.756893   12.100401    ( 0.0000,  0.0000,  0.0000)
   8 Cu     5.513137    1.513150   14.267811    ( 0.0000,  0.0000,  0.0000)
   9 Cu     6.821229    3.775985   14.270448    ( 0.0000,  0.0000,  0.0000)
  10 Cu     2.895741    1.509138   14.269428    ( 0.0000,  0.0000,  0.0000)
  11 Cu     4.204248    3.777925   14.258103    ( 0.0000,  0.0000,  0.0000)
  12 Cu     2.895813   -0.003213   16.433627    ( 0.0000,  0.0000,  0.0000)
  13 Cu     4.199194    2.265907   16.413987    ( 0.0000,  0.0000,  0.0000)
  14 Cu     0.273316   -0.000524   16.410634    ( 0.0000,  0.0000,  0.0000)
  15 Cu     1.583389    2.266279   16.419153    ( 0.0000,  0.0000,  0.0000)
  16 Cu     2.888791    3.013360   18.603710    ( 0.0000,  0.0000,  0.0000)
  17 Cu     1.580599    0.751047   18.570988    ( 0.0000,  0.0000,  0.0000)
  18 Cu     5.506303    3.021770   18.566843    ( 0.0000,  0.0000,  0.0000)
  19 Cu     4.202916    0.764089   18.588996    ( 0.0000,  0.0000,  0.0000)
  20 Cu     5.463914    1.507904   20.673181    ( 0.0000,  0.0000,  0.0000)
  21 Cu     6.855796    3.788328   20.676281    ( 0.0000,  0.0000,  0.0000)
  22 Cu     2.885252    1.523964   20.734666    ( 0.0000,  0.0000,  0.0000)
  23 Cu     4.195841    3.809687   20.706005    ( 0.0000,  0.0000,  0.0000)
  24 Cu     5.550510    4.524378   10.004033    ( 0.0000,  0.0000,  0.0000)
  25 Cu     2.884270    4.545278    9.982689    ( 0.0000,  0.0000,  0.0000)
  26 Cu     4.208755    5.293249   12.106608    ( 0.0000,  0.0000,  0.0000)
  27 Cu     6.814506    5.274506   12.093382    ( 0.0000,  0.0000,  0.0000)
  28 Cu     8.124309    6.044795   14.250336    ( 0.0000,  0.0000,  0.0000)
  29 Cu     5.517630    6.041969   14.278936    ( 0.0000,  0.0000,  0.0000)
  30 Cu     5.507295    4.529018   16.416228    ( 0.0000,  0.0000,  0.0000)
  31 Cu     2.892190    4.527545   16.414221    ( 0.0000,  0.0000,  0.0000)
  32 Cu     4.201649    5.299040   18.578345    ( 0.0000,  0.0000,  0.0000)
  33 Cu     6.809932    5.281673   18.585334    ( 0.0000,  0.0000,  0.0000)
  34 Cu     8.130522    6.043116   20.718303    ( 0.0000,  0.0000,  0.0000)
  35 Cu     5.523426    6.037961   20.784133    ( 0.0000,  0.0000,  0.0000)
  36 Cu     5.493813    0.001281    9.913564    ( 0.0000,  0.0000,  0.0000)
  37 Cu     6.820382    2.226060    9.981875    ( 0.0000,  0.0000,  0.0000)
  38 Cu     8.131061    3.027522   12.080312    ( 0.0000,  0.0000,  0.0000)
  39 Cu     6.817815    0.740356   12.107448    ( 0.0000,  0.0000,  0.0000)
  40 Cu     8.128888    1.514846   14.269559    ( 0.0000,  0.0000,  0.0000)
  41 Cu     9.437072    3.775269   14.267748    ( 0.0000,  0.0000,  0.0000)
  42 Cu     5.502890   -0.000016   16.404611    ( 0.0000,  0.0000,  0.0000)
  43 Cu     6.816659    2.263978   16.425893    ( 0.0000,  0.0000,  0.0000)
  44 Cu     8.140568    3.024369   18.587621    ( 0.0000,  0.0000,  0.0000)
  45 Cu     6.811582    0.745952   18.576248    ( 0.0000,  0.0000,  0.0000)
  46 Cu     8.134340    1.491198   20.701562    ( 0.0000,  0.0000,  0.0000)
  47 Cu     9.439141    3.756094   20.687005    ( 0.0000,  0.0000,  0.0000)
  48 Cu     8.129693    4.493802    9.982856    ( 0.0000,  0.0000,  0.0000)
  49 Cu     9.437914    5.286005   12.114420    ( 0.0000,  0.0000,  0.0000)
  50 Cu    10.747312    6.042557   14.272357    ( 0.0000,  0.0000,  0.0000)
  51 Cu     8.124342    4.533082   16.415669    ( 0.0000,  0.0000,  0.0000)
  52 Cu     9.441780    5.289381   18.562667    ( 0.0000,  0.0000,  0.0000)
  53 Cu    10.727350    6.071016   20.763577    ( 0.0000,  0.0000,  0.0000)
  54 Cl     6.200102    2.599349   22.746335    ( 0.0000,  0.0000,  0.0000)
  55 Cl     4.790764    3.454058    7.933428    ( 0.0000,  0.0000,  0.0000)
  56 Cl     9.375588    4.510133   22.783820    ( 0.0000,  0.0000,  0.0000)
  57 Cl     1.644371    1.497325    7.907238    ( 0.0000,  0.0000,  0.0000)
  58 Cl     8.165150    5.329665    7.920765    ( 0.0000,  0.0000,  0.0000)
  59 Cl     2.766023    0.747834   22.764484    ( 0.0000,  0.0000,  0.0000)
  60 Cl     4.872590    4.767816   22.950697    ( 0.0000,  0.0000,  0.0000)
  61 Cl     6.144657    1.297039    7.718096    ( 0.0000,  0.0000,  0.0000)
  62 Cl     3.602120    5.665294    7.723599    ( 0.0000,  0.0000,  0.0000)
  63 Cl     7.315335    0.367350   22.994943    ( 0.0000,  0.0000,  0.0000)

Unit cell:
           periodic     x           y           z      points  spacing
  1. axis:    yes    7.851007    0.000000    0.000000    45     0.1511
  2. axis:    yes    3.925503    6.799171    0.000000    45     0.1511
  3. axis:    yes    0.000000    0.000000   30.683867   175     0.1753

  Lengths:   7.851007   7.851006  30.683867
  Angles:   90.000000  90.000000  60.000001

Effective grid spacing dv^(1/3) = 0.1666

     iter     time        total  log10-change:
                         energy  eigst   dens
iter:   1 14:15:34 -4455.304222  -1.57
iter:   2 14:16:35 -4453.684792  -2.26  -1.98
iter:   3 14:17:37 -4452.833789  -3.21  -2.19
iter:   4 14:18:25 -4452.634808  -3.79  -2.33
iter:   5 14:19:17 -4452.526904c -3.32  -2.42
iter:   6 14:20:05 -4452.576497c -3.15  -2.54
iter:   7 14:21:25 -4452.412690c -3.92  -2.56
iter:   8 14:22:28 -4452.396929c -3.72  -2.84
iter:   9 14:23:24 -4452.381878c -4.61  -2.89
iter:  10 14:24:12 -4452.376313c -4.50  -3.01
iter:  11 14:25:01 -4452.373796c -4.43  -3.16
iter:  12 14:25:53 -4452.374053c -5.32  -3.45
iter:  13 14:26:43 -4452.372702c -6.28  -3.40
iter:  14 14:27:33 -4452.371465c -5.27  -3.52
iter:  15 14:28:37 -4452.372275c -5.84  -3.60
iter:  16 14:29:27 -4452.371828c -6.77  -3.66
iter:  17 14:30:32 -4452.371006c -5.61  -3.74
iter:  18 14:31:29 -4452.371153c -6.28  -3.83
iter:  19 14:32:26 -4452.370950c -7.19  -4.24c
iter:  20 14:33:26 -4452.370960c -7.48c -4.30c

Converged after 20 iterations.

Dipole moment: (-28.441051, -14.120242, 0.000689) |e|*Ang

Energy contributions relative to reference atoms: (reference = -2556707.893378)

Kinetic:       +469.748361
Potential:     -503.655030
External:        +0.000000
XC:            -4417.420858
Entropy (-ST):   -0.622471
Local:           -0.732197
--------------------------
Free energy:   -4452.682195
Extrapolated:  -4452.370960

Showing only first 2 kpts
 Kpt  Band  Eigenvalues  Occupancy
  0   330      0.24489    1.73720
  0   331      0.41411    1.09788
  0   332      0.48110    0.76757
  0   333      0.50793    0.64526

  1   330     -0.03368    1.98151
  1   331      0.09133    1.93691
  1   332      0.23260    1.76401
  1   333      0.39515    1.19064


Fermi level: 0.43375

No gap

Forces in eV/Ang:
  0 Cu   -0.00352    0.01632   -0.22491
  1 Cu    0.06619    0.11320   -0.05228
  2 Cu    0.05501    0.02335   -0.11061
  3 Cu    0.02614   -0.03033    0.06072
  4 Cu    0.04162    0.07063    0.05938
  5 Cu   -0.01499   -0.06763   -0.10847
  6 Cu    0.01959   -0.02371    0.01261
  7 Cu   -0.00112   -0.03473   -0.07768
  8 Cu    0.00650   -0.00927   -0.02389
  9 Cu    0.02159   -0.00405   -0.03529
 10 Cu   -0.00601    0.00261   -0.05740
 11 Cu   -0.01472    0.00415   -0.02445
 12 Cu   -0.01011    0.00623    0.01114
 13 Cu   -0.02202    0.00253    0.03582
 14 Cu    0.00032    0.00176    0.05148
 15 Cu    0.00938   -0.00573    0.04678
 16 Cu    0.07266    0.00238   -0.00034
 17 Cu   -0.00689   -0.03919    0.11058
 18 Cu   -0.01992    0.02305   -0.01110
 19 Cu   -0.00327   -0.05388   -0.02493
 20 Cu    0.06563    0.13032    0.01472
 21 Cu   -0.06497   -0.11649    0.04745
 22 Cu    0.06622    0.20184   -0.55020
 23 Cu    0.00981    0.05728    0.06295
 24 Cu   -0.05153   -0.11871   -0.00892
 25 Cu    0.00388    0.06094   -0.03267
 26 Cu    0.00134    0.00448   -0.04652
 27 Cu   -0.01882    0.07199    0.04769
 28 Cu    0.00982   -0.00687   -0.00754
 29 Cu   -0.00395    0.00169   -0.03046
 30 Cu   -0.00853    0.00674    0.02791
 31 Cu   -0.00073   -0.00766    0.07391
 32 Cu   -0.01272    0.01255    0.12480
 33 Cu   -0.00150    0.03462    0.07274
 34 Cu    0.03253   -0.04677    0.18353
 35 Cu    0.02985   -0.02262    0.11870
 36 Cu   -0.05031   -0.00592   -0.14714
 37 Cu   -0.02504   -0.07554   -0.08840
 38 Cu   -0.07280   -0.04824    0.05443
 39 Cu    0.01307   -0.01146   -0.11487
 40 Cu    0.00031    0.00589   -0.07110
 41 Cu   -0.01024    0.00419   -0.04483
 42 Cu    0.00294   -0.00286    0.03708
 43 Cu    0.01233   -0.00521    0.02749
 44 Cu   -0.04116   -0.07229   -0.07015
 45 Cu   -0.00092   -0.00368    0.05004
 46 Cu   -0.02598   -0.05648    0.03276
 47 Cu   -0.01536    0.02270   -0.05959
 48 Cu   -0.01607   -0.01075    0.14804
 49 Cu    0.02336    0.05244   -0.08477
 50 Cu   -0.00198   -0.00427   -0.04601
 51 Cu    0.00480   -0.00414    0.05914
 52 Cu    0.01707    0.06568    0.10463
 53 Cu   -0.05476   -0.01196    0.12506
 54 Cl   -0.08786    0.05508    0.05127
 55 Cl    0.10545   -0.09504   -0.03981
 56 Cl   -0.51340    0.03378   -0.34715
 57 Cl    0.47797   -0.05466    0.34669
 58 Cl   -0.46070    0.10242    0.27506
 59 Cl    0.43144   -0.18325    0.09804
 60 Cl   -0.34306    0.42966   -0.33844
 61 Cl    0.28184   -0.40145    0.35951
 62 Cl   -0.35675    0.48360    0.29148
 63 Cl    0.43243   -0.47847   -0.32495

System changes: positions 

Initializing position-dependent things.

Density initialized from wave functions
                                              
                                              
                                              
                                              
                     Cl                       
                                Cl            
                       Clu    Cu     Cu       
              Cl         Cl                   
                   Cu     Cu    Cu            
               Cu   CCu    CCu   Cu           
                                              
               Cu     Cu     Cu               
           Cu   CCu    CCu   Cu               
                                              
            Cu    Cu    CCu   Cu     Cu       
       Cu     Cu   CCu    Cu    Cu            
                                              
               Cu   CCu    CCu   Cu           
               Cu     Cu     Cu               
                                              
           Cu   CCu    CCu   Cu               
            Cu    Cu     Cu                   
                   Cl         Cl              
       Cu     Cu    Cu                        
            Cl                                
                       Cl                     
                                              
                                              
                                              
                                              

Positions:
   0 Cu     2.884824   -0.004540    9.914152    ( 0.0000,  0.0000,  0.0000)
   1 Cu     4.173031    2.271729   10.013943    ( 0.0000,  0.0000,  0.0000)
   2 Cu     0.294886   -0.041283    9.883793    ( 0.0000,  0.0000,  0.0000)
   3 Cu     1.587519    2.309418   10.055352    ( 0.0000,  0.0000,  0.0000)
   4 Cu     2.874067    3.026161   12.093955    ( 0.0000,  0.0000,  0.0000)
   5 Cu     1.574470    0.741098   12.091842    ( 0.0000,  0.0000,  0.0000)
   6 Cu     5.518233    3.014118   12.115050    ( 0.0000,  0.0000,  0.0000)
   7 Cu     4.207531    0.747898   12.083708    ( 0.0000,  0.0000,  0.0000)
   8 Cu     5.514899    1.512472   14.262430    ( 0.0000,  0.0000,  0.0000)
   9 Cu     6.824995    3.774548   14.264201    ( 0.0000,  0.0000,  0.0000)
  10 Cu     2.895043    1.510417   14.257760    ( 0.0000,  0.0000,  0.0000)
  11 Cu     4.201984    3.778218   14.250470    ( 0.0000,  0.0000,  0.0000)
  12 Cu     2.893825   -0.001658   16.434671    ( 0.0000,  0.0000,  0.0000)
  13 Cu     4.195288    2.266893   16.420344    ( 0.0000,  0.0000,  0.0000)
  14 Cu     0.273482   -0.000180   16.418574    ( 0.0000,  0.0000,  0.0000)
  15 Cu     1.585302    2.265318   16.426825    ( 0.0000,  0.0000,  0.0000)
  16 Cu     2.893852    3.011079   18.629069    ( 0.0000,  0.0000,  0.0000)
  17 Cu     1.582411    0.745269   18.599478    ( 0.0000,  0.0000,  0.0000)
  18 Cu     5.500693    3.026096   18.568464    ( 0.0000,  0.0000,  0.0000)
  19 Cu     4.196636    0.756102   18.593783    ( 0.0000,  0.0000,  0.0000)
  20 Cu     5.468692    1.533699   20.658433    ( 0.0000,  0.0000,  0.0000)
  21 Cu     6.847050    3.764635   20.669682    ( 0.0000,  0.0000,  0.0000)
  22 Cu     2.903789    1.571106   20.645482    ( 0.0000,  0.0000,  0.0000)
  23 Cu     4.201349    3.823457   20.724776    ( 0.0000,  0.0000,  0.0000)
  24 Cu     5.547011    4.499893   10.020106    ( 0.0000,  0.0000,  0.0000)
  25 Cu     2.887674    4.559104    9.972592    ( 0.0000,  0.0000,  0.0000)
  26 Cu     4.207664    5.297143   12.093095    ( 0.0000,  0.0000,  0.0000)
  27 Cu     6.817611    5.285134   12.091531    ( 0.0000,  0.0000,  0.0000)
  28 Cu     8.126240    6.043151   14.249937    ( 0.0000,  0.0000,  0.0000)
  29 Cu     5.516907    6.040995   14.273992    ( 0.0000,  0.0000,  0.0000)
  30 Cu     5.505165    4.529235   16.422277    ( 0.0000,  0.0000,  0.0000)
  31 Cu     2.892994    4.525311   16.427512    ( 0.0000,  0.0000,  0.0000)
  32 Cu     4.199276    5.303870   18.608851    ( 0.0000,  0.0000,  0.0000)
  33 Cu     6.808691    5.290709   18.601328    ( 0.0000,  0.0000,  0.0000)
  34 Cu     8.134931    6.036597   20.755319    ( 0.0000,  0.0000,  0.0000)
  35 Cu     5.525592    6.023476   20.827575    ( 0.0000,  0.0000,  0.0000)
  36 Cu     5.490196    0.013744    9.869162    ( 0.0000,  0.0000,  0.0000)
  37 Cu     6.811831    2.209381    9.959260    ( 0.0000,  0.0000,  0.0000)
  38 Cu     8.126023    3.023973   12.061397    ( 0.0000,  0.0000,  0.0000)
  39 Cu     6.820239    0.735556   12.078724    ( 0.0000,  0.0000,  0.0000)
  40 Cu     8.127964    1.516601   14.256473    ( 0.0000,  0.0000,  0.0000)
  41 Cu     9.434938    3.775705   14.260380    ( 0.0000,  0.0000,  0.0000)
  42 Cu     5.503395    0.000755   16.410991    ( 0.0000,  0.0000,  0.0000)
  43 Cu     6.818482    2.263199   16.434137    ( 0.0000,  0.0000,  0.0000)
  44 Cu     8.144415    3.013969   18.589830    ( 0.0000,  0.0000,  0.0000)
  45 Cu     6.812971    0.742237   18.590624    ( 0.0000,  0.0000,  0.0000)
  46 Cu     8.128001    1.478673   20.711840    ( 0.0000,  0.0000,  0.0000)
  47 Cu     9.431006    3.726588   20.626612    ( 0.0000,  0.0000,  0.0000)
  48 Cu     8.118239    4.458497   10.048432    ( 0.0000,  0.0000,  0.0000)
[...]
 10 Cu   -0.00324   -0.00225   -0.00927
 11 Cu    0.00094   -0.00954    0.00436
 12 Cu   -0.00155   -0.00499    0.01239
 13 Cu    0.00764   -0.00352   -0.00404
 14 Cu   -0.01325   -0.00968    0.00136
 15 Cu    0.00785   -0.00973   -0.00115
 16 Cu   -0.00169   -0.00988   -0.00736
 17 Cu   -0.01910   -0.00260   -0.00003
 18 Cu   -0.00628   -0.01557    0.00827
 19 Cu   -0.00637   -0.00307   -0.00150
 20 Cu   -0.00978    0.00255    0.01135
 21 Cu   -0.01065    0.00528    0.00771
 22 Cu   -0.00150   -0.00419   -0.00482
 23 Cu    0.00537    0.01291    0.00219
 24 Cu    0.00478    0.00058   -0.00617
 25 Cu    0.00694    0.00240   -0.00661
 26 Cu    0.00655   -0.01485    0.00260
 27 Cu    0.00100   -0.00070   -0.00686
 28 Cu    0.00191    0.00869   -0.02119
 29 Cu    0.00602    0.00472   -0.00117
 30 Cu    0.00247   -0.00159   -0.00321
 31 Cu   -0.00089   -0.00058   -0.00121
 32 Cu   -0.00406   -0.01040    0.00217
 33 Cu   -0.00868   -0.00319   -0.00571
 34 Cu    0.00670    0.01101   -0.00108
 35 Cu   -0.00585   -0.00479   -0.00321
 36 Cu   -0.00094    0.00238    0.00253
 37 Cu   -0.00796   -0.01088    0.00816
 38 Cu    0.00195    0.00720   -0.00324
 39 Cu    0.00497    0.00371   -0.00400
 40 Cu    0.00204    0.00690    0.00061
 41 Cu    0.00036    0.00392    0.00335
 42 Cu   -0.00799   -0.00359   -0.00512
 43 Cu    0.00052   -0.00355   -0.00235
 44 Cu   -0.00970   -0.00273   -0.00527
 45 Cu   -0.00485    0.00944   -0.00046
 46 Cu   -0.01183   -0.00141    0.02460
 47 Cu   -0.01633   -0.00027   -0.00166
 48 Cu   -0.00059    0.00422   -0.00340
 49 Cu    0.01396    0.00102    0.00184
 50 Cu    0.01228    0.00532   -0.00668
 51 Cu    0.00291   -0.00281    0.00923
 52 Cu    0.00254    0.00154   -0.01053
 53 Cu   -0.01261    0.00976    0.00220
 54 Cl    0.01958   -0.01675   -0.02453
 55 Cl   -0.00194    0.00454    0.01977
 56 Cl   -0.01707   -0.01582    0.00516
 57 Cl    0.00387    0.02773   -0.01328
 58 Cl    0.00581   -0.00149    0.01590
 59 Cl   -0.00885    0.01988    0.01076
 60 Cl    0.01306   -0.00921    0.00727
 61 Cl   -0.01335   -0.00191   -0.02326
 62 Cl    0.01985   -0.00342    0.00571
 63 Cl   -0.01170    0.01128    0.00316

System changes: positions 

Initializing position-dependent things.

Density initialized from wave functions
                                              
                                              
                                              
                                              
                                              
                 Cl          Cl               
                      ClCu    Cu     Cu       
               Cl  Cu     CCl   Cu            
                                              
               Cu   CCu    CCu   Cu           
                Cu           Cu               
                      Cu                      
           Cu   CCu    CCu   Cu               
                                              
            Cu    Cu    CCu   Cu     Cu       
       Cu     Cu   CCu    Cu    Cu            
                                              
               Cu   CCu    CCu   Cu           
                      Cu    Cu                
               Cu                             
           Cu   CCu    CCu   Cu               
                         Cu                   
            Cu   CCu         Cl               
       Cu     Cu    Cul                       
               Cl          Cl                 
                                              
                                              
                                              
                                              
                                              

Positions:
   0 Cu     2.877915   -0.082491    9.917658    ( 0.0000,  0.0000,  0.0000)
   1 Cu     4.209309    2.242023    9.937251    ( 0.0000,  0.0000,  0.0000)
   2 Cu     0.267750    0.007166    9.935837    ( 0.0000,  0.0000,  0.0000)
   3 Cu     1.556573    2.267274    9.911287    ( 0.0000,  0.0000,  0.0000)
   4 Cu     2.864650    3.001957   12.084938    ( 0.0000,  0.0000,  0.0000)
   5 Cu     1.577222    0.721880   12.057086    ( 0.0000,  0.0000,  0.0000)
   6 Cu     5.478953    2.998595   12.153805    ( 0.0000,  0.0000,  0.0000)
   7 Cu     4.209092    0.733335   12.059641    ( 0.0000,  0.0000,  0.0000)
   8 Cu     5.504262    1.502633   14.274886    ( 0.0000,  0.0000,  0.0000)
   9 Cu     6.823445    3.769370   14.277542    ( 0.0000,  0.0000,  0.0000)
  10 Cu     2.896029    1.500490   14.217927    ( 0.0000,  0.0000,  0.0000)
  11 Cu     4.191344    3.774861   14.268141    ( 0.0000,  0.0000,  0.0000)
  12 Cu     2.907720   -0.003418   16.400669    ( 0.0000,  0.0000,  0.0000)
  13 Cu     4.203760    2.271323   16.402565    ( 0.0000,  0.0000,  0.0000)
  14 Cu     0.291787   -0.003970   16.402872    ( 0.0000,  0.0000,  0.0000)
  15 Cu     1.597307    2.273013   16.382996    ( 0.0000,  0.0000,  0.0000)
  16 Cu     2.907865    3.052163   18.544065    ( 0.0000,  0.0000,  0.0000)
  17 Cu     1.613415    0.761320   18.508850    ( 0.0000,  0.0000,  0.0000)
  18 Cu     5.546521    3.038918   18.526760    ( 0.0000,  0.0000,  0.0000)
  19 Cu     4.233085    0.741609   18.510148    ( 0.0000,  0.0000,  0.0000)
  20 Cu     5.547968    1.431370   20.545106    ( 0.0000,  0.0000,  0.0000)
  21 Cu     6.818674    3.768700   20.695372    ( 0.0000,  0.0000,  0.0000)
  22 Cu     2.918054    1.561581   20.543758    ( 0.0000,  0.0000,  0.0000)
  23 Cu     4.309358    3.761720   20.648520    ( 0.0000,  0.0000,  0.0000)
  24 Cu     5.507350    4.563905   10.093875    ( 0.0000,  0.0000,  0.0000)
  25 Cu     2.890416    4.477115   10.017521    ( 0.0000,  0.0000,  0.0000)
  26 Cu     4.192959    5.295737   12.141008    ( 0.0000,  0.0000,  0.0000)
  27 Cu     6.802742    5.283236   12.151538    ( 0.0000,  0.0000,  0.0000)
  28 Cu     8.126294    6.039901   14.262639    ( 0.0000,  0.0000,  0.0000)
  29 Cu     5.512277    6.039709   14.278119    ( 0.0000,  0.0000,  0.0000)
  30 Cu     5.521783    4.540086   16.412474    ( 0.0000,  0.0000,  0.0000)
  31 Cu     2.901463    4.548343   16.445346    ( 0.0000,  0.0000,  0.0000)
  32 Cu     4.254194    5.310890   18.602125    ( 0.0000,  0.0000,  0.0000)
  33 Cu     6.821280    5.310148   18.626550    ( 0.0000,  0.0000,  0.0000)
  34 Cu     8.156310    6.079931   20.782955    ( 0.0000,  0.0000,  0.0000)
  35 Cu     5.553695    6.083780   20.836871    ( 0.0000,  0.0000,  0.0000)
  36 Cu     5.471575   -0.038571    9.929976    ( 0.0000,  0.0000,  0.0000)
  37 Cu     6.730301    2.251057   10.099500    ( 0.0000,  0.0000,  0.0000)
  38 Cu     8.134799    2.987516   12.149908    ( 0.0000,  0.0000,  0.0000)
  39 Cu     6.788445    0.723635   12.124880    ( 0.0000,  0.0000,  0.0000)
  40 Cu     8.132451    1.491719   14.249076    ( 0.0000,  0.0000,  0.0000)
  41 Cu     9.436763    3.771182   14.292782    ( 0.0000,  0.0000,  0.0000)
  42 Cu     5.521035   -0.005057   16.391113    ( 0.0000,  0.0000,  0.0000)
  43 Cu     6.836056    2.267901   16.406925    ( 0.0000,  0.0000,  0.0000)
  44 Cu     8.171203    3.040002   18.563714    ( 0.0000,  0.0000,  0.0000)
  45 Cu     6.844314    0.730732   18.509541    ( 0.0000,  0.0000,  0.0000)
  46 Cu     8.159572    1.543977   20.578872    ( 0.0000,  0.0000,  0.0000)
  47 Cu     9.463101    3.745321   20.766708    ( 0.0000,  0.0000,  0.0000)
  48 Cu     8.137169    4.457738   10.118820    ( 0.0000,  0.0000,  0.0000)
  49 Cu     9.434193    5.265468   12.150566    ( 0.0000,  0.0000,  0.0000)
  50 Cu    10.743574    6.035171   14.274300    ( 0.0000,  0.0000,  0.0000)
  51 Cu     8.134717    4.545352   16.455064    ( 0.0000,  0.0000,  0.0000)
  52 Cu     9.457246    5.314236   18.632681    ( 0.0000,  0.0000,  0.0000)
  53 Cu    10.769981    6.015379   20.766684    ( 0.0000,  0.0000,  0.0000)
  54 Cl     5.720641    2.510156   22.500035    ( 0.0000,  0.0000,  0.0000)
  55 Cl     5.022873    3.603522    8.124256    ( 0.0000,  0.0000,  0.0000)
  56 Cl     8.010238    4.491417   22.573969    ( 0.0000,  0.0000,  0.0000)
  57 Cl     2.915493    1.431449    8.112355    ( 0.0000,  0.0000,  0.0000)
  58 Cl     7.705457    5.313573    8.098844    ( 0.0000,  0.0000,  0.0000)
  59 Cl     3.192639    0.624942   22.562706    ( 0.0000,  0.0000,  0.0000)
  60 Cl     3.129084    4.175258   22.560636    ( 0.0000,  0.0000,  0.0000)
  61 Cl     7.806764    2.036867    8.134306    ( 0.0000,  0.0000,  0.0000)
  62 Cl     2.898332    5.897018    8.179543    ( 0.0000,  0.0000,  0.0000)
  63 Cl     7.981457    0.334672   22.516584    ( 0.0000,  0.0000,  0.0000)

Unit cell:
           periodic     x           y           z      points  spacing
  1. axis:    yes    7.851007    0.000000    0.000000    45     0.1511
  2. axis:    yes    3.925503    6.799171    0.000000    45     0.1511
  3. axis:    yes    0.000000    0.000000   30.683867   175     0.1753

  Lengths:   7.851007   7.851006  30.683867
  Angles:   90.000000  90.000000  60.000001

Effective grid spacing dv^(1/3) = 0.1666

     iter     time        total  log10-change:
                         energy  eigst   dens
iter:   1 01:46:11 -4454.908084  -3.86
iter:   2 01:47:12 -4454.921733  -4.33  -3.24
iter:   3 01:48:11 -4454.897197c -4.97  -3.11
iter:   4 01:49:01 -4454.896758c -6.34  -3.77
iter:   5 01:49:50 -4454.896402c -5.52  -3.83
iter:   6 01:50:38 -4454.896531c -6.46  -4.12c
iter:   7 01:51:27 -4454.896556c -6.30  -4.19c
iter:   8 01:52:14 -4454.896506c -7.04  -4.40c
iter:   9 01:53:03 -4454.896441c -6.88  -4.60c
iter:  10 01:53:51 -4454.896430c -7.72c -4.77c

Converged after 10 iterations.

Dipole moment: (-3.749008, -13.155066, 0.027779) |e|*Ang

Energy contributions relative to reference atoms: (reference = -2556707.893378)

Kinetic:       +518.428958
Potential:     -542.645009
External:        +0.000000
XC:            -4429.790861
Entropy (-ST):   -0.504645
Local:           -0.637196
--------------------------
Free energy:   -4455.148753
Extrapolated:  -4454.896430

Showing only first 2 kpts
 Kpt  Band  Eigenvalues  Occupancy
  0   330      0.25748    1.42433
  0   331      0.44711    0.54170
  0   332      0.51903    0.30644
  0   333      0.56970    0.19660

  1   330     -0.09265    1.97592
  1   331      0.03081    1.91958
  1   332      0.17795    1.69139
  1   333      0.34293    1.02570


Fermi level: 0.34808

No gap

Forces in eV/Ang:
  0 Cu   -0.00057    0.00811   -0.00402
  1 Cu    0.00600   -0.01048    0.00493
  2 Cu    0.00898    0.00087    0.00432
  3 Cu    0.00421    0.00194   -0.00331
  4 Cu    0.00582    0.00763   -0.00368
  5 Cu   -0.00541   -0.00025   -0.00416
  6 Cu    0.00480    0.00903    0.00482
  7 Cu    0.00387    0.00440    0.00172
  8 Cu    0.00708   -0.00095   -0.00404
  9 Cu    0.00014    0.00767    0.00395
 10 Cu    0.00068   -0.00290   -0.00367
 11 Cu   -0.00186   -0.00599    0.00275
 12 Cu   -0.00634   -0.00232    0.00377
 13 Cu    0.00955   -0.00369   -0.00492
 14 Cu   -0.00864   -0.00684    0.00200
 15 Cu    0.00225   -0.01244   -0.00292
 16 Cu   -0.00808   -0.00571   -0.00333
 17 Cu   -0.01643    0.00046    0.01027
 18 Cu   -0.00771   -0.01117    0.00572
 19 Cu   -0.00500   -0.00473    0.00103
 20 Cu   -0.01061    0.00260   -0.00315
 21 Cu   -0.00259    0.00703    0.00105
 22 Cu   -0.00730   -0.00431   -0.00183
 23 Cu   -0.00585    0.00721   -0.00305
 24 Cu    0.00839    0.00332    0.01700
 25 Cu    0.00618   -0.00025    0.00104
 26 Cu    0.00539   -0.00810    0.00249
 27 Cu   -0.00121    0.00007   -0.00806
 28 Cu    0.00418    0.00371   -0.01079
 29 Cu    0.00666    0.00337    0.00221
 30 Cu    0.00012   -0.00399   -0.00143
 31 Cu   -0.00068   -0.00203   -0.00092
 32 Cu   -0.00484   -0.00642   -0.00223
 33 Cu   -0.00620   -0.00441   -0.00668
 34 Cu   -0.00791    0.00439    0.00418
 35 Cu   -0.00295   -0.00317   -0.00514
 36 Cu   -0.00210    0.00146    0.00629
 37 Cu    0.01053   -0.00623   -0.00743
 38 Cu    0.00173    0.00606    0.00337
 39 Cu    0.00403    0.00037   -0.00021
 40 Cu    0.00270    0.00530    0.00082
 41 Cu    0.00176    0.00504    0.00816
 42 Cu   -0.00681   -0.00130   -0.00565
 43 Cu    0.00231   -0.00191   -0.00192
 44 Cu   -0.00898   -0.00594    0.00368
 45 Cu    0.00019    0.00828    0.00089
 46 Cu   -0.00999    0.00415    0.01062
 47 Cu   -0.00859    0.00194    0.00023
 48 Cu    0.00354   -0.00085    0.01033
 49 Cu    0.01059    0.00056   -0.00538
 50 Cu    0.01154    0.00425   -0.00239
 51 Cu    0.00002   -0.00197    0.00154
 52 Cu    0.00099   -0.00242    0.00091
 53 Cu   -0.00785   -0.00077   -0.00866
 54 Cl    0.00821   -0.00878   -0.00254
 55 Cl    0.00867   -0.00079   -0.01367
 56 Cl   -0.00893    0.00441   -0.00455
 57 Cl    0.00324    0.00670    0.00532
 58 Cl   -0.00178    0.01176   -0.00493
 59 Cl    0.00335    0.00761   -0.00263
 60 Cl   -0.00520   -0.01797   -0.00251
 61 Cl   -0.00137    0.00572    0.00855
 62 Cl   -0.00448   -0.00204   -0.02174
 63 Cl    0.00768    0.00278    0.02284

Timing:                                      incl.     excl.
-------------------------------------------------------------------
Density initialized from wave functions:   256.346   256.344   0.5% |
 Symmetrize density:                         0.003     0.003   0.0% |
Forces:                                   1053.698  1053.698   2.1% ||
Hamiltonian:                               446.256     0.977   0.0% |
 Atomic:                                    16.728     3.203   0.0% |
  XC Correction:                            13.525    13.525   0.0% |
 Calculate atomic Hamiltonians:             97.064    97.064   0.2% |
 Communicate:                                8.359     8.359   0.0% |
 Initialize Hamiltonian:                     0.002     0.002   0.0% |
 Poisson:                                    0.304     0.304   0.0% |
 XC 3D grid:                               322.822    45.010   0.1% |
  VdW-DF integral:                         277.812    11.425   0.0% |
   Convolution:                             17.842    17.842   0.0% |
   FFT:                                      9.250     9.250   0.0% |
   gather:                                 106.184   106.184   0.2% |
   hmm1:                                     5.542     5.542   0.0% |
   hmm2:                                    13.343    13.343   0.0% |
   iFFT:                                     9.479     9.479   0.0% |
   potential:                               99.678     1.276   0.0% |
    collect:                                15.268    15.268   0.0% |
    p1:                                     44.603    44.603   0.1% |
    p2:                                     19.196    19.196   0.0% |
    sum:                                    19.336    19.336   0.0% |
   splines:                                  5.070     5.070   0.0% |
LCAO initialization:                       222.985     0.516   0.0% |
 LCAO eigensolver:                          10.974     0.002   0.0% |
  Blacs Orbital Layouts:                     0.581     0.001   0.0% |
   General diagonalize:                      0.570     0.570   0.0% |
   Redistribute coefs:                       0.007     0.007   0.0% |
   Send coefs to domains:                    0.004     0.004   0.0% |
  Calculate projections:                     0.014     0.014   0.0% |
  Distribute overlap matrix:                10.028     0.001   0.0% |
   Scalapack redistribute:                   0.018     0.018   0.0% |
   blocked summation:                       10.009    10.009   0.0% |
  Potential matrix:                          0.219     0.219   0.0% |
  SparseAtomicCorrection:                    0.021     0.021   0.0% |
  Sum over cells:                            0.109     0.109   0.0% |
 LCAO to grid:                             209.271   209.271   0.4% |
 Set positions (LCAO WFS):                   2.224     0.041   0.0% |
  Basic WFS set positions:                   0.002     0.002   0.0% |
  Basis functions set positions:             0.000     0.000   0.0% |
  P tci:                                     0.058     0.058   0.0% |
  ST tci:                                    0.449     0.449   0.0% |
  Scalapack redistribute:                    0.025     0.025   0.0% |
  blocked summation:                         1.488     1.488   0.0% |
  mktci:                                     0.160     0.160   0.0% |
PWDescriptor:                                0.599     0.599   0.0% |
Redistribute:                                0.086     0.086   0.0% |
SCF-cycle:                               46859.145  2409.755   4.9% |-|
 Davidson:                               32999.766  7777.028  15.8% |-----|
  Apply H:                                3642.545  3580.335   7.3% |--|
   HMM T:                                   62.210    62.210   0.1% |
  Subspace diag:                          5796.976     0.198   0.0% |
   calc_h_matrix:                         4417.473   838.481   1.7% ||
    Apply H:                              3578.992  3514.351   7.1% |--|
     HMM T:                                 64.641    64.641   0.1% |
   diagonalize:                            178.451   178.451   0.4% |
   rotate_psi:                            1200.854  1200.854   2.4% ||
  calc. matrices:                        12417.158  5333.550  10.8% |---|
   Apply H:                               7083.608  6960.442  14.2% |-----|
    HMM T:                                 123.166   123.166   0.3% |
  diagonalize:                            1137.800  1137.800   2.3% ||
  rotate_psi:                             2228.258  2228.258   4.5% |-|
 Density:                                 4113.366     0.041   0.0% |
  Atomic density matrices:                  14.217    14.217   0.0% |
  Mix:                                    1922.242  1922.242   3.9% |-|
  Multipole moments:                         1.016     1.016   0.0% |
  Pseudo density:                         2175.849  2175.809   4.4% |-|
   Symmetrize density:                       0.040     0.040   0.0% |
 Hamiltonian:                             7155.018    15.799   0.0% |
  Atomic:                                  261.577    45.961   0.1% |
   XC Correction:                          215.616   215.616   0.4% |
  Calculate atomic Hamiltonians:          1589.426  1589.426   3.2% ||
  Communicate:                             144.863   144.863   0.3% |
  Poisson:                                   4.629     4.629   0.0% |
  XC 3D grid:                             5138.724   716.322   1.5% ||
   VdW-DF integral:                       4422.402   185.139   0.4% |
    Convolution:                           286.257   286.257   0.6% |
    FFT:                                   145.246   145.246   0.3% |
    gather:                               1749.278  1749.278   3.6% ||
    hmm1:                                   90.016    90.016   0.2% |
    hmm2:                                  214.038   214.038   0.4% |
    iFFT:                                  153.083   153.083   0.3% |
    potential:                            1599.336    20.607   0.0% |
     collect:                              247.832   247.832   0.5% |
     p1:                                   709.928   709.928   1.4% ||
     p2:                                   303.714   303.714   0.6% |
     sum:                                  317.254   317.254   0.6% |
    splines:                                 0.010     0.010   0.0% |
 Orthonormalize:                           181.241     0.021   0.0% |
  calc_s_matrix:                            24.515    24.515   0.0% |
  inverse-cholesky:                          6.516     6.516   0.0% |
  projections:                             113.104   113.104   0.2% |
  rotate_psi_s:                             37.084    37.084   0.1% |
Set symmetry:                                0.001     0.001   0.0% |
Other:                                     320.005   320.005   0.7% |
-------------------------------------------------------------------
Total:                                             49159.121 100.0%

Memory usage: 1.27 GiB
Date: Tue Oct 18 01:54:10 2022
