
  ___ ___ ___ _ _ _  
 |   |   |_  | | | | 
 | | | | | . | | | | 
 |__ |  _|___|_____|  22.1.0
 |___|_|             

User:   thorkong@node253.cluster
Date:   Mon Oct 17 14:40:49 2022
Arch:   x86_64
Pid:    210888
Python: 3.10.5
gpaw:   /groups/kemi/thorkong/miniconda3/envs/gpaw22/lib/python3.10/site-packages/gpaw
_gpaw:  /groups/kemi/thorkong/miniconda3/envs/gpaw22/lib/python3.10/site-packages/
        _gpaw.cpython-310-x86_64-linux-gnu.so
ase:    /groups/kemi/thorkong/miniconda3/envs/gpaw22/lib/python3.10/site-packages/ase (version 3.22.1)
numpy:  /groups/kemi/thorkong/miniconda3/envs/gpaw22/lib/python3.10/site-packages/numpy (version 1.23.0)
scipy:  /groups/kemi/thorkong/miniconda3/envs/gpaw22/lib/python3.10/site-packages/scipy (version 1.8.1)
libxc:  5.2.3
units:  Angstrom and eV
cores: 32
OpenMP: True
OMP_NUM_THREADS: 1

Input parameters:
  basis: dzp
  kpts: [4 4 1]
  mode: {ecut: 600.0,
         name: pw}
  xc: BEEF-vdW

System changes: positions, numbers, cell, pbc, initial_charges, initial_magmoms 

Initialize ...

Cu-setup:
  name: Copper
  id: f1c4d45d90492f1bbfdcb091e8418fdf
  Z: 29.0
  valence: 11
  core: 18
  charge: 0.0
  file: /groups/kemi/thorkong/miniconda3/envs/gpaw22/share/gpaw/Cu.PBE.gz
  compensation charges: gauss, rc=0.33, lmax=2
  cutoffs: 2.06(filt), 2.43(core),
  valence states:
                energy  radius
    4s(1.00)    -4.609   1.164
    4p(0.00)    -0.698   1.164
    3d(10.00)    -5.039   1.058
    *s          22.603   1.164
    *p          26.513   1.164
    *d          22.172   1.058

  LCAO basis set for Cu:
    Name: dzp
    File: /groups/kemi/thorkong/miniconda3/envs/gpaw22/share/gpaw/Cu.dzp.basis.gz
    Number of radial functions: 5
    Number of spherical harmonics: 15
      l=0, rc=8.9688 Bohr: 4s-sz confined orbital
      l=2, rc=5.1719 Bohr: 3d-sz confined orbital
      l=0, rc=5.3281 Bohr: 4s-dz split-valence wave
      l=2, rc=3.1406 Bohr: 3d-dz split-valence wave
      l=1, rc=8.9688 Bohr: p-type Gaussian polarization

Cl-setup:
  name: Chlorine
  id: 726897f06f34e53cf8e33b5885a02604
  Z: 17.0
  valence: 7
  core: 10
  charge: 0.0
  file: /groups/kemi/thorkong/miniconda3/envs/gpaw22/share/gpaw/Cl.PBE.gz
  compensation charges: gauss, rc=0.25, lmax=2
  cutoffs: 1.40(filt), 1.49(core),
  valence states:
                energy  radius
    3s(2.00)   -20.689   0.794
    3p(5.00)    -8.594   0.794
    *s           6.523   0.794
    *p          18.617   0.794
    *d           0.000   0.794

  LCAO basis set for Cl:
    Name: dzp
    File: /groups/kemi/thorkong/miniconda3/envs/gpaw22/share/gpaw/Cl.dzp.basis.gz
    Number of radial functions: 5
    Number of spherical harmonics: 13
      l=0, rc=5.1719 Bohr: 3s-sz confined orbital
      l=1, rc=6.2656 Bohr: 3p-sz confined orbital
      l=0, rc=2.8281 Bohr: 3s-dz split-valence wave
      l=1, rc=3.5156 Bohr: 3p-dz split-valence wave
      l=2, rc=6.2656 Bohr: d-type Gaussian polarization

Reference energy: -2531597.994586

Spin-paired calculation

Convergence criteria:
 Maximum [total energy] change in last 3 cyles: 0.0005 eV / electron
 Maximum integral of absolute [dens]ity change: 0.0001 electrons / valence electron
 Maximum integral of absolute [eigenst]ate change: 4e-08 eV^2 / valence electron
 Maximum number of scf [iter]ations: 333
 (Square brackets indicate name in SCF output, whereas a 'c' in
 the SCF output indicates the quantity has converged.)

Symmetries present (total): 1

  ( 1  0  0)
  ( 0  1  0)
  ( 0  0  1)

16 k-points: 4 x 4 x 1 Monkhorst-Pack grid
8 k-points in the irreducible part of the Brillouin zone
       k-points in crystal coordinates                weights
   0:     0.12500000   -0.37500000    0.00000000          2/16
   1:     0.12500000   -0.12500000    0.00000000          2/16
   2:     0.12500000    0.12500000    0.00000000          2/16
   3:     0.12500000    0.37500000    0.00000000          2/16
   4:     0.37500000   -0.37500000    0.00000000          2/16
   5:     0.37500000   -0.12500000    0.00000000          2/16
   6:     0.37500000    0.12500000    0.00000000          2/16
   7:     0.37500000    0.37500000    0.00000000          2/16

Wave functions: Plane wave expansion
  Cutoff energy: 600.000 eV
  Number of coefficients (min, max): 63070, 63184
  Pulay-stress correction: 0.000000 eV/Ang^3 (de/decut=0.000000)
  Using FFTW library
  ScaLapack parameters: grid=2x2, blocksize=64
  Wavefunction extrapolation:
    Improved wavefunction reuse through dual PAW basis 

Occupation numbers: Fermi-Dirac: width=0.1000 eV
 

Eigensolver
   Davidson(niter=2) 

Densities:
  Coarse grid: 45*48*175 grid
  Fine grid: 90*96*350 grid
  Total Charge: 0.000000 

Density mixing:
  Method: separate
  Backend: pulay
  Linear mixing parameter: 0.05
  Mixing with 5 old densities
  Damping of long wave oscillations: 50 

Hamiltonian:
  XC and Coulomb potentials evaluated on a 90*96*350 grid
  Using the BEEF-vdW Exchange-Correlation functional
  External potential:
    NoExternalPotential
 

XC parameters: BEEF-vdW with 2 nearest neighbor stencil

Memory estimate:
  Process memory now: 254.85 MiB
  Calculator: 866.99 MiB
    Density: 47.05 MiB
      Arrays: 18.85 MiB
      Localized functions: 20.94 MiB
      Mixer: 7.25 MiB
    Hamiltonian: 12.84 MiB
      Arrays: 12.33 MiB
      XC: 0.00 MiB
      Poisson: 0.00 MiB
      vbar: 0.51 MiB
    Wavefunctions: 807.11 MiB
      Arrays psit_nG: 379.86 MiB
      Eigensolver: 408.38 MiB
      Projections: 1.62 MiB
      Projectors: 2.41 MiB
      PW-descriptor: 14.84 MiB

Total number of cores used: 32
Parallelization over k-points: 8
Domain decomposition: 1 x 1 x 4
                      2 x 2 x 8 (xc only)

Number of atoms: 62
Number of atomic orbitals: 914
Number of bands in calculation: 394
Number of valence electrons: 650
Bands to converge: occupied

... initialized

Initializing position-dependent things.

Density initialized from atomic densities
Creating initial wave functions:
  394 bands from LCAO basis set

                                     
                                     
                                     
                                     
                         Cl          
                Cl                   
                                     
        Cl Cu    Cu  Cl Cu           
               Cu    Cu     Cu       
         Cu    Cu     Cu             
       Cu    Cu     Cu    Cu         
              Cu                     
           CCu   CCu    Cu           
         Cu    CCu   CCu    Cu       
                                     
       Cu    CCu    Cu    Cu         
           Cu    CCu    Cu           
               Cu    Cu     Cu       
         Cu     Cu    Cu             
       Cu    Cu     Cu    Cu         
              Cu    Cu               
           Cu     Cu    Cu Cl        
                   Cl                
                                     
                       Cl            
                                     
                                     
                                     
                                     

Positions:
   0 Cu     1.851874    1.842086   10.044767    ( 0.0000,  0.0000,  0.0000)
   1 Cu     0.572048    0.518337   11.854739    ( 0.0000,  0.0000,  0.0000)
   2 Cu     3.208369    0.549454   11.826759    ( 0.0000,  0.0000,  0.0000)
   3 Cu     1.885044    1.836608   13.699605    ( 0.0000,  0.0000,  0.0000)
   4 Cu     0.579320    0.526826   15.560947    ( 0.0000,  0.0000,  0.0000)
   5 Cu     3.185437    0.522508   15.555968    ( 0.0000,  0.0000,  0.0000)
   6 Cu     1.901068    1.854575   17.424612    ( 0.0000,  0.0000,  0.0000)
   7 Cu     0.575906    0.561899   19.206760    ( 0.0000,  0.0000,  0.0000)
   8 Cu     3.188310    0.488633   19.210481    ( 0.0000,  0.0000,  0.0000)
   9 Cu     0.574574    3.144633   11.846476    ( 0.0000,  0.0000,  0.0000)
  10 Cu     0.575916    3.143785   15.552326    ( 0.0000,  0.0000,  0.0000)
  11 Cu     0.546349    3.145891   19.206137    ( 0.0000,  0.0000,  0.0000)
  12 Cu     7.147069    1.821677   10.043621    ( 0.0000,  0.0000,  0.0000)
  13 Cu     5.794000    0.540777   11.820405    ( 0.0000,  0.0000,  0.0000)
  14 Cu     7.114080    1.831917   13.694773    ( 0.0000,  0.0000,  0.0000)
  15 Cu     5.808982    0.523918   15.556714    ( 0.0000,  0.0000,  0.0000)
  16 Cu     7.113100    1.827061   17.396972    ( 0.0000,  0.0000,  0.0000)
  17 Cu     5.807880    0.526790   19.217827    ( 0.0000,  0.0000,  0.0000)
  18 Cu     4.494064    1.763231    9.932089    ( 0.0000,  0.0000,  0.0000)
  19 Cu     4.496146    4.525263    9.931071    ( 0.0000,  0.0000,  0.0000)
  20 Cu     3.207669    3.147945   11.830838    ( 0.0000,  0.0000,  0.0000)
  21 Cu     5.791432    3.139321   11.831411    ( 0.0000,  0.0000,  0.0000)
  22 Cu     4.501104    1.833097   13.705422    ( 0.0000,  0.0000,  0.0000)
  23 Cu     4.500286    4.451342   13.700374    ( 0.0000,  0.0000,  0.0000)
  24 Cu     3.191019    3.143173   15.550169    ( 0.0000,  0.0000,  0.0000)
  25 Cu     5.806714    3.142761   15.552225    ( 0.0000,  0.0000,  0.0000)
  26 Cu     4.483820    1.848780   17.430757    ( 0.0000,  0.0000,  0.0000)
  27 Cu     4.483576    4.446716   17.420218    ( 0.0000,  0.0000,  0.0000)
  28 Cu     3.195113    3.070202   19.320757    ( 0.0000,  0.0000,  0.0000)
  29 Cu     5.840799    3.127025   19.209886    ( 0.0000,  0.0000,  0.0000)
  30 Cu     1.850636    4.467419   10.041562    ( 0.0000,  0.0000,  0.0000)
  31 Cu     1.883456    7.067453   10.032493    ( 0.0000,  0.0000,  0.0000)
  32 Cu     0.578168    5.767618   11.853682    ( 0.0000,  0.0000,  0.0000)
  33 Cu     3.207330    5.746015   11.820678    ( 0.0000,  0.0000,  0.0000)
  34 Cu     1.884398    4.451712   13.698510    ( 0.0000,  0.0000,  0.0000)
  35 Cu     1.882140    7.070634   13.694193    ( 0.0000,  0.0000,  0.0000)
  36 Cu     0.577138    5.762455   15.555937    ( 0.0000,  0.0000,  0.0000)
  37 Cu     3.190200    5.761333   15.545038    ( 0.0000,  0.0000,  0.0000)
  38 Cu     1.899950    4.455283   17.419419    ( 0.0000,  0.0000,  0.0000)
  39 Cu     1.897387    7.053708   17.430112    ( 0.0000,  0.0000,  0.0000)
  40 Cu     0.544416    5.772752   19.207193    ( 0.0000,  0.0000,  0.0000)
  41 Cu     3.197353    5.832220   19.317966    ( 0.0000,  0.0000,  0.0000)
  42 Cu     7.144990    4.448863   10.045121    ( 0.0000,  0.0000,  0.0000)
  43 Cu     7.115261    7.033008   10.044024    ( 0.0000,  0.0000,  0.0000)
  44 Cu     5.790284    5.740371   11.826573    ( 0.0000,  0.0000,  0.0000)
  45 Cu     7.115409    4.450638   13.698320    ( 0.0000,  0.0000,  0.0000)
  46 Cu     7.111993    7.067752   13.689826    ( 0.0000,  0.0000,  0.0000)
  47 Cu     5.806194    5.757852   15.551058    ( 0.0000,  0.0000,  0.0000)
  48 Cu     7.116689    4.449777   17.404260    ( 0.0000,  0.0000,  0.0000)
  49 Cu     7.119110    7.076103   17.395949    ( 0.0000,  0.0000,  0.0000)
  50 Cu     5.839650    5.752596   19.206190    ( 0.0000,  0.0000,  0.0000)
  51 Cu     4.502840    7.106124   10.040718    ( 0.0000,  0.0000,  0.0000)
  52 Cu     4.505854    7.072213   13.694900    ( 0.0000,  0.0000,  0.0000)
  53 Cu     4.482985    7.045347   17.423899    ( 0.0000,  0.0000,  0.0000)
  54 Cl     3.111134    4.453599   21.202893    ( 0.0000,  0.0000,  0.0000)
  55 Cl     4.580310    3.143724    8.048163    ( 0.0000,  0.0000,  0.0000)
  56 Cl     1.867046    5.767436    8.237027    ( 0.0000,  0.0000,  0.0000)
  57 Cl     0.561128    1.853895   21.006449    ( 0.0000,  0.0000,  0.0000)
  58 Cl     5.840224    7.039810   21.008038    ( 0.0000,  0.0000,  0.0000)
  59 Cl     7.093286    0.367959    8.057112    ( 0.0000,  0.0000,  0.0000)
  60 Cl     7.130126    5.740935    8.244573    ( 0.0000,  0.0000,  0.0000)
  61 Cl     5.824339    1.826908   21.013856    ( 0.0000,  0.0000,  0.0000)

Unit cell:
           periodic     x           y           z      points  spacing
  1. axis:    yes    7.851007    0.000000    0.000000    45     0.1655
  2. axis:    yes    2.617002    7.851007    0.000000    48     0.1636
  3. axis:    yes    0.000000    0.000000   30.683867   175     0.1753

  Lengths:   7.851007   8.275688  30.683867
  Angles:   90.000000  90.000000  71.565053

Effective grid spacing dv^(1/3) = 0.1710

     iter     time        total  log10-change:
                         energy  eigst   dens
iter:   1 14:46:43 -4541.554573
iter:   2 14:47:54 -4425.684756  -0.01  -0.91
iter:   3 14:48:48 -4393.880147  -1.02  -1.22
iter:   4 14:49:45 -4391.090600  -1.67  -1.34
iter:   5 14:50:57 -4385.052072  -1.77  -1.41
iter:   6 14:52:06 -4381.511320  -1.74  -1.52
iter:   7 14:53:10 -4380.713667  -2.73  -1.67
iter:   8 14:54:02 -4380.746652  -2.64  -1.72
iter:   9 14:54:54 -4379.908180  -2.39  -1.87
iter:  10 14:55:47 -4379.857331  -2.68  -2.19
iter:  11 14:56:41 -4379.497787  -3.35  -2.36
iter:  12 14:57:33 -4379.472742  -3.95  -2.53
iter:  13 14:58:47 -4379.443683c -3.17  -2.58
iter:  14 14:59:59 -4379.435792c -4.02  -2.78
iter:  15 15:01:07 -4379.425223c -4.68  -2.94
iter:  16 15:02:21 -4379.419022c -4.10  -3.03
iter:  17 15:03:15 -4379.423178c -4.60  -3.25
iter:  18 15:04:16 -4379.418324c -5.11  -3.42
iter:  19 15:05:10 -4379.417843c -5.36  -3.52
iter:  20 15:06:02 -4379.417990c -5.59  -3.58
iter:  21 15:06:55 -4379.418796c -5.51  -3.63
iter:  22 15:08:05 -4379.417645c -5.83  -3.72
iter:  23 15:09:07 -4379.417604c -6.76  -3.98
iter:  24 15:09:58 -4379.417544c -6.75  -4.01c
iter:  25 15:10:51 -4379.417392c -6.83  -4.13c
iter:  26 15:11:51 -4379.417371c -6.98  -4.22c
iter:  27 15:12:48 -4379.417585c -6.65  -4.30c
iter:  28 15:13:50 -4379.417401c -7.47c -4.43c

Converged after 28 iterations.

Dipole moment: (-2.945031, -36.769009, 0.051283) |e|*Ang

Energy contributions relative to reference atoms: (reference = -2531597.994586)

Kinetic:       +495.758038
Potential:     -524.763166
External:        +0.000000
XC:            -4349.373134
Entropy (-ST):   -0.616493
Local:           -0.730893
--------------------------
Free energy:   -4379.725648
Extrapolated:  -4379.417401

Showing only first 2 kpts
 Kpt  Band  Eigenvalues  Occupancy
  0   323     -0.83896    1.89008
  0   324     -0.77922    1.80883
  0   325     -0.66525    1.50336
  0   326     -0.52855    0.87099

  1   323     -0.84713    1.89827
  1   324     -0.76539    1.78354
  1   325     -0.66221    1.49190
  1   326     -0.44565    0.50381


Fermi level: -0.55449

No gap

Forces in eV/Ang:
  0 Cu    0.14507    0.06218    0.01372
  1 Cu    0.01775   -0.03274    0.10658
  2 Cu    0.03243   -0.03996   -0.07168
  3 Cu    0.01259   -0.03548    0.06833
  4 Cu    0.00199    0.01309   -0.01705
  5 Cu    0.00204   -0.00870    0.00352
  6 Cu    0.11713   -0.06100   -0.17678
  7 Cu    0.05412   -0.60407   -0.25760
  8 Cu   -0.02949    0.55253   -0.24360
  9 Cu   -0.05627    0.03503   -0.03812
 10 Cu    0.00488    0.00653   -0.01704
 11 Cu    0.22714    0.68122   -0.26942
 12 Cu   -0.04130   -0.01066   -0.52365
 13 Cu   -0.05252   -0.08592    0.10119
 14 Cu    0.00177    0.00493    0.02387
 15 Cu   -0.00219    0.00167   -0.03378
 16 Cu    0.00005    0.00985   -0.37929
 17 Cu   -0.02473   -0.59433   -0.29722
 18 Cu   -0.11312    0.19361   -0.17459
 19 Cu   -0.01945   -0.20794   -0.14340
 20 Cu   -0.04860    0.02713   -0.02739
 21 Cu    0.09567    0.02126   -0.04140
 22 Cu   -0.01400    0.01607    0.04114
 23 Cu   -0.01420   -0.00272   -0.00208
 24 Cu    0.01410    0.04031   -0.00130
 25 Cu   -0.01872   -0.02545   -0.02468
 26 Cu   -0.11166   -0.05178   -0.19699
 27 Cu    0.12682    0.00907    0.05364
 28 Cu    0.01370    0.21965    0.10417
 29 Cu   -0.24512    0.63892   -0.23070
 30 Cu    0.24698   -0.57401    0.06767
 31 Cu    0.19203    0.41046    0.79387
 32 Cu    0.04916    0.04486    0.36691
 33 Cu   -0.00461    0.02259    0.15053
 34 Cu    0.00602   -0.01459   -0.04561
 35 Cu    0.02701    0.00547    0.02704
 36 Cu    0.01499   -0.00706   -0.10043
 37 Cu   -0.02442   -0.03266   -0.04746
 38 Cu   -0.07379   -0.03687    0.02998
 39 Cu    0.00607    0.09494    0.09388
 40 Cu    0.20404   -0.07517   -0.07663
 41 Cu   -0.19839   -0.19725    0.11176
 42 Cu   -0.21114   -0.72891    0.26205
 43 Cu   -0.34810    0.62728    0.23457
 44 Cu   -0.05528    0.00206    0.19346
 45 Cu    0.00120    0.02490    0.04929
 46 Cu   -0.02316   -0.00619    0.00057
 47 Cu    0.01389    0.01496    0.01603
 48 Cu   -0.05611   -0.06340    0.06782
 49 Cu    0.12108    0.03429   -0.18341
 50 Cu    0.00793   -0.65144   -0.22851
 51 Cu    0.11959    0.07722    0.01686
 52 Cu   -0.00452    0.00787    0.04592
 53 Cu   -0.12875    0.06621   -0.20938
 54 Cl   -0.04864    0.17577   -0.35581
 55 Cl   -0.12705   -0.16232    0.37883
 56 Cl    2.76694   -3.74933   -0.66078
 57 Cl    2.80819   -0.02387    0.83461
 58 Cl    0.07859   -0.11965    0.99102
 59 Cl    0.16096    3.91733   -0.16221
 60 Cl   -2.77159    0.13770   -0.82574
 61 Cl   -2.82433    0.01295    0.78149

System changes: positions 

Initializing position-dependent things.

Density initialized from wave functions
                                     
                                     
                                     
                                     
                         Cl          
                                     
                Cl                   
        Cl Cu    Cu  Cl Cu           
               Cu    Cu     Cu       
         Cu    Cu     Cu             
             Cu    Cu     Cu         
       Cu     Cu    Cu               
           Cu    CCu    Cu           
         Cu    Cu    CCu    Cu       
                                     
       Cu    CCu    Cu    Cu         
           Cu    CCu    Cu           
               Cu    Cu     Cu       
         Cu    Cu     Cu             
             Cu     Cu    Cu         
       Cu     Cu    Cu               
           Cu Cl  Cu    Cu Cl        
                   Cl                
                                     
                       Cl            
                                     
                                     
                                     
                                     

Positions:
   0 Cu     1.858039    1.844728   10.045350    ( 0.0000,  0.0000,  0.0000)
   1 Cu     0.572802    0.516946   11.859268    ( 0.0000,  0.0000,  0.0000)
   2 Cu     3.209747    0.547756   11.823713    ( 0.0000,  0.0000,  0.0000)
   3 Cu     1.885579    1.835100   13.702509    ( 0.0000,  0.0000,  0.0000)
   4 Cu     0.579405    0.527382   15.560222    ( 0.0000,  0.0000,  0.0000)
   5 Cu     3.185524    0.522138   15.556117    ( 0.0000,  0.0000,  0.0000)
   6 Cu     1.906045    1.851983   17.417100    ( 0.0000,  0.0000,  0.0000)
   7 Cu     0.578206    0.536229   19.195813    ( 0.0000,  0.0000,  0.0000)
   8 Cu     3.187057    0.512113   19.200129    ( 0.0000,  0.0000,  0.0000)
   9 Cu     0.572183    3.146122   11.844856    ( 0.0000,  0.0000,  0.0000)
  10 Cu     0.576124    3.144062   15.551602    ( 0.0000,  0.0000,  0.0000)
  11 Cu     0.556001    3.174840   19.194688    ( 0.0000,  0.0000,  0.0000)
  12 Cu     7.145314    1.821224   10.021368    ( 0.0000,  0.0000,  0.0000)
  13 Cu     5.791768    0.537126   11.824705    ( 0.0000,  0.0000,  0.0000)
  14 Cu     7.114155    1.832127   13.695788    ( 0.0000,  0.0000,  0.0000)
  15 Cu     5.808889    0.523989   15.555279    ( 0.0000,  0.0000,  0.0000)
  16 Cu     7.113102    1.827480   17.380854    ( 0.0000,  0.0000,  0.0000)
  17 Cu     5.806829    0.501534   19.205196    ( 0.0000,  0.0000,  0.0000)
  18 Cu     4.489257    1.771458    9.924670    ( 0.0000,  0.0000,  0.0000)
  19 Cu     4.495319    4.516427    9.924977    ( 0.0000,  0.0000,  0.0000)
  20 Cu     3.205604    3.149098   11.829674    ( 0.0000,  0.0000,  0.0000)
  21 Cu     5.795497    3.140224   11.829652    ( 0.0000,  0.0000,  0.0000)
  22 Cu     4.500509    1.833780   13.707170    ( 0.0000,  0.0000,  0.0000)
  23 Cu     4.499682    4.451226   13.700286    ( 0.0000,  0.0000,  0.0000)
  24 Cu     3.191618    3.144886   15.550114    ( 0.0000,  0.0000,  0.0000)
  25 Cu     5.805919    3.141679   15.551176    ( 0.0000,  0.0000,  0.0000)
  26 Cu     4.479075    1.846580   17.422386    ( 0.0000,  0.0000,  0.0000)
  27 Cu     4.488965    4.447101   17.422497    ( 0.0000,  0.0000,  0.0000)
  28 Cu     3.195695    3.079536   19.325184    ( 0.0000,  0.0000,  0.0000)
  29 Cu     5.830382    3.154176   19.200082    ( 0.0000,  0.0000,  0.0000)
  30 Cu     1.861131    4.443026   10.044438    ( 0.0000,  0.0000,  0.0000)
  31 Cu     1.891616    7.084896   10.066229    ( 0.0000,  0.0000,  0.0000)
  32 Cu     0.580257    5.769524   11.869274    ( 0.0000,  0.0000,  0.0000)
  33 Cu     3.207134    5.746975   11.827075    ( 0.0000,  0.0000,  0.0000)
  34 Cu     1.884654    4.451092   13.696572    ( 0.0000,  0.0000,  0.0000)
  35 Cu     1.883288    7.070867   13.695342    ( 0.0000,  0.0000,  0.0000)
  36 Cu     0.577775    5.762155   15.551669    ( 0.0000,  0.0000,  0.0000)
  37 Cu     3.189162    5.759945   15.543021    ( 0.0000,  0.0000,  0.0000)
  38 Cu     1.896814    4.453716   17.420693    ( 0.0000,  0.0000,  0.0000)
  39 Cu     1.897645    7.057743   17.434102    ( 0.0000,  0.0000,  0.0000)
  40 Cu     0.553087    5.769558   19.203937    ( 0.0000,  0.0000,  0.0000)
  41 Cu     3.188922    5.823838   19.322715    ( 0.0000,  0.0000,  0.0000)
  42 Cu     7.136018    4.417888   10.056257    ( 0.0000,  0.0000,  0.0000)
  43 Cu     7.100468    7.059664   10.053992    ( 0.0000,  0.0000,  0.0000)
  44 Cu     5.787935    5.740458   11.834794    ( 0.0000,  0.0000,  0.0000)
  45 Cu     7.115460    4.451696   13.700415    ( 0.0000,  0.0000,  0.0000)
  46 Cu     7.111009    7.067489   13.689850    ( 0.0000,  0.0000,  0.0000)
  47 Cu     5.806784    5.758488   15.551739    ( 0.0000,  0.0000,  0.0000)
  48 Cu     7.114305    4.447083   17.407142    ( 0.0000,  0.0000,  0.0000)
  49 Cu     7.124256    7.077560   17.388155    ( 0.0000,  0.0000,  0.0000)
  50 Cu     5.839987    5.724913   19.196479    ( 0.0000,  0.0000,  0.0000)
  51 Cu     4.507922    7.109405   10.041435    ( 0.0000,  0.0000,  0.0000)
  52 Cu     4.505662    7.072548   13.696851    ( 0.0000,  0.0000,  0.0000)
  53 Cu     4.477514    7.048161   17.415001    ( 0.0000,  0.0000,  0.0000)
  54 Cl     3.109067    4.461068   21.187773    ( 0.0000,  0.0000,  0.0000)
  55 Cl     4.574911    3.136826    8.064261    ( 0.0000,  0.0000,  0.0000)
  56 Cl     1.984628    5.608107    8.208947    ( 0.0000,  0.0000,  0.0000)
  57 Cl     0.680463    1.852881   21.041916    ( 0.0000,  0.0000,  0.0000)
  58 Cl     5.843564    7.034726   21.050152    ( 0.0000,  0.0000,  0.0000)
  59 Cl     7.100126    0.534427    8.050219    ( 0.0000,  0.0000,  0.0000)
  60 Cl     7.012346    5.746787    8.209483    ( 0.0000,  0.0000,  0.0000)
  61 Cl     5.704318    1.827458   21.047066    ( 0.0000,  0.0000,  0.0000)

Unit cell:
           periodic     x           y           z      points  spacing
  1. axis:    yes    7.851007    0.000000    0.000000    45     0.1655
  2. axis:    yes    2.617002    7.851007    0.000000    48     0.1636
  3. axis:    yes    0.000000    0.000000   30.683867   175     0.1753

  Lengths:   7.851007   8.275688  30.683867
  Angles:   90.000000  90.000000  71.565053

Effective grid spacing dv^(1/3) = 0.1710

     iter     time        total  log10-change:
                         energy  eigst   dens
iter:   1 15:15:28 -4383.255049  -1.70
iter:   2 15:16:43 -4383.496101  -2.30  -2.16
iter:   3 15:17:54 -4381.821159  -2.86  -2.13
iter:   4 15:19:14 -4381.608707  -3.14  -2.49
iter:   5 15:20:08 -4381.580373c -3.48  -2.71
iter:   6 15:21:01 -4381.567405c -3.83  -2.88
iter:   7 15:21:56 -4381.556293c -3.71  -2.98
iter:   8 15:22:58 -4381.553491c -4.95  -3.22
iter:   9 15:23:50 -4381.554244c -4.50  -3.27
iter:  10 15:24:53 -4381.548011c -4.67  -3.23
iter:  11 15:26:00 -4381.547641c -5.50  -3.50
iter:  12 15:27:05 -4381.546491c -4.76  -3.54
iter:  13 15:27:57 -4381.545653c -5.66  -3.82
iter:  14 15:28:54 -4381.545561c -5.61  -3.94
iter:  15 15:29:50 -4381.545487c -6.60  -4.10c
iter:  16 15:30:41 -4381.545380c -6.09  -4.22c
iter:  17 15:31:33 -4381.545366c -7.03  -4.41c
iter:  18 15:32:24 -4381.545354c -7.19  -4.49c
iter:  19 15:33:15 -4381.545363c -7.82c -4.64c

Converged after 19 iterations.

Dipole moment: (-26.064973, -32.586769, 0.069194) |e|*Ang

Energy contributions relative to reference atoms: (reference = -2531597.994586)

Kinetic:       +476.355780
Potential:     -510.129031
External:        +0.000000
XC:            -4346.778765
Entropy (-ST):   -0.590739
Local:           -0.697977
--------------------------
Free energy:   -4381.840733
Extrapolated:  -4381.545363

Showing only first 2 kpts
 Kpt  Band  Eigenvalues  Occupancy
  0   323     -0.95648    1.91124
  0   324     -0.86467    1.79161
  0   325     -0.74733    1.45346
  0   326     -0.62475    0.87677

  1   323     -0.96026    1.91440
  1   324     -0.85896    1.78072
  1   325     -0.75499    1.48336
  1   326     -0.52722    0.45481


Fermi level: -0.64952

No gap

Forces in eV/Ang:
  0 Cu    0.11276   -0.01828    0.02092
  1 Cu    0.04269    0.03034    0.10563
  2 Cu    0.00432    0.00760   -0.00810
  3 Cu    0.01528   -0.02353    0.05836
  4 Cu   -0.00351    0.00286   -0.03377
  5 Cu    0.00420   -0.01174   -0.01590
  6 Cu    0.06210   -0.02831   -0.14114
  7 Cu   -0.02901   -0.20280    0.08161
  8 Cu   -0.01614    0.15905    0.07577
  9 Cu   -0.04293   -0.01397   -0.00351
 10 Cu    0.00943    0.01714   -0.02851
 11 Cu    0.09066    0.22869    0.08593
 12 Cu   -0.02401    0.02283   -0.42287
 13 Cu   -0.04912   -0.00914    0.10524
 14 Cu   -0.00156    0.00800    0.01496
 15 Cu    0.00062   -0.00614   -0.04803
 16 Cu    0.00237    0.02054   -0.20289
 17 Cu    0.04983   -0.20143    0.04242
 18 Cu   -0.10025    0.14518   -0.11057
 19 Cu   -0.01695   -0.11513   -0.07954
 20 Cu   -0.01743    0.00037    0.01578
 21 Cu    0.05536   -0.02882   -0.00558
 22 Cu   -0.01513    0.01541    0.02382
 23 Cu   -0.00949   -0.01420    0.00130
 24 Cu    0.00873    0.04620   -0.00285
 25 Cu   -0.01858   -0.00670   -0.03129
 26 Cu   -0.05837   -0.01878   -0.15570
 27 Cu    0.03993    0.01712   -0.01799
 28 Cu    0.01435    0.17303    0.04508
 29 Cu   -0.10899    0.17969    0.09386
 30 Cu    0.09047   -0.47135    0.26664
 31 Cu    0.05655    0.00577   -0.33792
 32 Cu    0.01120    0.00770    0.19110
 33 Cu    0.02567    0.00595    0.12214
 34 Cu    0.00981   -0.02849   -0.02475
 35 Cu    0.02575    0.01503    0.03574
 36 Cu    0.02017   -0.01054   -0.07374
 37 Cu   -0.02335   -0.03168   -0.02765
 38 Cu   -0.01960   -0.00671   -0.03460
 39 Cu    0.01113    0.03965    0.02155
 40 Cu    0.13390   -0.04482   -0.04604
 41 Cu   -0.13843   -0.13610    0.04927
 42 Cu   -0.10550   -0.24121   -0.07538
 43 Cu   -0.14943    0.21931   -0.09738
 44 Cu   -0.04621   -0.00679    0.13729
 45 Cu   -0.00656    0.00948    0.06077
 46 Cu   -0.02996    0.00696    0.02058
 47 Cu    0.00693    0.00369    0.01188
 48 Cu   -0.01736   -0.03568   -0.02790
 49 Cu    0.05114   -0.00792   -0.13369
 50 Cu    0.00740   -0.18272    0.10686
 51 Cu    0.06093    0.04652   -0.00883
 52 Cu    0.00355    0.01113    0.05116
 53 Cu   -0.05876    0.01824   -0.14735
 54 Cl   -0.05107    0.20756   -0.22769
 55 Cl   -0.11625   -0.21153    0.25156
 56 Cl    1.50471   -1.35703   -0.32826
 57 Cl    1.42453   -0.03203    0.16608
 58 Cl    0.07630   -0.16302    0.29252
 59 Cl    0.15181    1.75680    0.37340
 60 Cl   -1.47328    0.20398   -0.17489
 61 Cl   -1.44292    0.03732    0.13649

System changes: positions 

Initializing position-dependent things.

Density initialized from wave functions
                                     
                                     
                                     
                                     
                         Cl          
                                     
                Cl                   
         ClCu    Cu Cl  Cu           
               Cu    Cu     Cu       
         Cu    Cu     Cu             
             Cu    Cu     Cu         
       Cu     Cu    Cu               
           Cu    CCu    Cu           
         Cu    Cu    CCu    Cu       
                                     
       Cu    CCu    Cu    Cu         
           Cu    CCu    Cu           
                     Cu              
         Cu    Cu     Cu    Cu       
             Cu     Cu    Cu         
       Cu     Cu    Cu               
           Cu Cl  Cu    CuCl         
                   Cl                
                                     
                       Cl            
                                     
                                     
                                     
                                     

Positions:
   0 Cu     1.872840    1.839141   10.048587    ( 0.0000,  0.0000,  0.0000)
   1 Cu     0.579789    0.523598   11.874224    ( 0.0000,  0.0000,  0.0000)
   2 Cu     3.209315    0.550605   11.824929    ( 0.0000,  0.0000,  0.0000)
   3 Cu     1.887848    1.832205   13.710421    ( 0.0000,  0.0000,  0.0000)
   4 Cu     0.578703    0.527408   15.554807    ( 0.0000,  0.0000,  0.0000)
   5 Cu     3.186200    0.520359   15.553139    ( 0.0000,  0.0000,  0.0000)
   6 Cu     1.912812    1.849182   17.398395    ( 0.0000,  0.0000,  0.0000)
   7 Cu     0.570995    0.522378   19.220016    ( 0.0000,  0.0000,  0.0000)
   8 Cu     3.185262    0.520044   19.222764    ( 0.0000,  0.0000,  0.0000)
   9 Cu     0.566587    3.142315   11.845646    ( 0.0000,  0.0000,  0.0000)
  10 Cu     0.577632    3.146889   15.547128    ( 0.0000,  0.0000,  0.0000)
  11 Cu     0.563790    3.190457   19.220105    ( 0.0000,  0.0000,  0.0000)
  12 Cu     7.142550    1.825711    9.965106    ( 0.0000,  0.0000,  0.0000)
  13 Cu     5.784924    0.538686   11.839791    ( 0.0000,  0.0000,  0.0000)
  14 Cu     7.113810    1.833376   13.697579    ( 0.0000,  0.0000,  0.0000)
  15 Cu     5.809082    0.522828   15.547931    ( 0.0000,  0.0000,  0.0000)
  16 Cu     7.113525    1.830793   17.358623    ( 0.0000,  0.0000,  0.0000)
  17 Cu     5.816675    0.487566   19.223853    ( 0.0000,  0.0000,  0.0000)
  18 Cu     4.475509    1.790260    9.911360    ( 0.0000,  0.0000,  0.0000)
  19 Cu     4.493008    4.503541    9.916064    ( 0.0000,  0.0000,  0.0000)
  20 Cu     3.204290    3.148155   11.833519    ( 0.0000,  0.0000,  0.0000)
  21 Cu     5.801855    3.134271   11.830192    ( 0.0000,  0.0000,  0.0000)
  22 Cu     4.498320    1.835942   13.709907    ( 0.0000,  0.0000,  0.0000)
  23 Cu     4.498512    4.448783   13.700595    ( 0.0000,  0.0000,  0.0000)
  24 Cu     3.192658    3.151661   15.549652    ( 0.0000,  0.0000,  0.0000)
  25 Cu     5.803288    3.141426   15.546491    ( 0.0000,  0.0000,  0.0000)
  26 Cu     4.472774    1.845142   17.401826    ( 0.0000,  0.0000,  0.0000)
  27 Cu     4.491399    4.449831   17.417279    ( 0.0000,  0.0000,  0.0000)
  28 Cu     3.197755    3.102358   19.329383    ( 0.0000,  0.0000,  0.0000)
  29 Cu     5.819980    3.162590   19.225479    ( 0.0000,  0.0000,  0.0000)
  30 Cu     1.868147    4.379953   10.089681    ( 0.0000,  0.0000,  0.0000)
  31 Cu     1.894601    7.070658    9.976162    ( 0.0000,  0.0000,  0.0000)
  32 Cu     0.580434    5.769234   11.889853    ( 0.0000,  0.0000,  0.0000)
  33 Cu     3.211904    5.747201   11.843352    ( 0.0000,  0.0000,  0.0000)
  34 Cu     1.886186    4.446532   13.693835    ( 0.0000,  0.0000,  0.0000)
  35 Cu     1.886895    7.073355   13.700738    ( 0.0000,  0.0000,  0.0000)
  36 Cu     0.580830    5.760530   15.542197    ( 0.0000,  0.0000,  0.0000)
  37 Cu     3.185888    5.755486   15.539834    ( 0.0000,  0.0000,  0.0000)
  38 Cu     1.896049    4.453886   17.413379    ( 0.0000,  0.0000,  0.0000)
  39 Cu     1.899413    7.061312   17.434469    ( 0.0000,  0.0000,  0.0000)
  40 Cu     0.569480    5.764326   19.198541    ( 0.0000,  0.0000,  0.0000)
  41 Cu     3.171507    5.806799   19.327383    ( 0.0000,  0.0000,  0.0000)
  42 Cu     7.124977    4.401802   10.033003    ( 0.0000,  0.0000,  0.0000)
  43 Cu     7.086654    7.075608   10.027821    ( 0.0000,  0.0000,  0.0000)
  44 Cu     5.781714    5.739166   11.852188    ( 0.0000,  0.0000,  0.0000)
  45 Cu     7.114240    4.452469   13.709465    ( 0.0000,  0.0000,  0.0000)
  46 Cu     7.106504    7.068965   13.693515    ( 0.0000,  0.0000,  0.0000)
  47 Cu     5.807510    5.758591   15.553270    ( 0.0000,  0.0000,  0.0000)
  48 Cu     7.113283    4.443050   17.399620    ( 0.0000,  0.0000,  0.0000)
  49 Cu     7.128911    7.074866   17.371033    ( 0.0000,  0.0000,  0.0000)
  50 Cu     5.841017    5.716422   19.224122    ( 0.0000,  0.0000,  0.0000)
  51 Cu     4.514387    7.114866   10.039225    ( 0.0000,  0.0000,  0.0000)
  52 Cu     4.506467    7.074249   13.704307    ( 0.0000,  0.0000,  0.0000)
  53 Cu     4.471779    7.048965   17.396399    ( 0.0000,  0.0000,  0.0000)
  54 Cl     3.101729    4.491708   21.160226    ( 0.0000,  0.0000,  0.0000)
  55 Cl     4.558815    3.104975    8.095227    ( 0.0000,  0.0000,  0.0000)
  56 Cl     2.151208    5.504533    8.174734    ( 0.0000,  0.0000,  0.0000)
  57 Cl     0.831144    1.848031   21.040610    ( 0.0000,  0.0000,  0.0000)
  58 Cl     5.854306    7.009977   21.065675    ( 0.0000,  0.0000,  0.0000)
  59 Cl     7.121329    0.703358    8.123140    ( 0.0000,  0.0000,  0.0000)
  60 Cl     6.851569    5.778202    8.208879    ( 0.0000,  0.0000,  0.0000)
  61 Cl     5.550943    1.833661   21.042438    ( 0.0000,  0.0000,  0.0000)

Unit cell:
           periodic     x           y           z      points  spacing
  1. axis:    yes    7.851007    0.000000    0.000000    45     0.1655
  2. axis:    yes    2.617002    7.851007    0.000000    48     0.1636
  3. axis:    yes    0.000000    0.000000   30.683867   175     0.1753

  Lengths:   7.851007   8.275688  30.683867
  Angles:   90.000000  90.000000  71.565053

Effective grid spacing dv^(1/3) = 0.1710

     iter     time        total  log10-change:
                         energy  eigst   dens
iter:   1 15:34:56 -4385.511859  -1.53
iter:   2 15:35:48 -4386.518556  -2.06  -2.00
iter:   3 15:36:39 -4383.693306  -2.34  -1.98
iter:   4 15:37:31 -4382.663135  -3.07  -2.19
iter:   5 15:38:22 -4382.574282  -2.89  -2.49
iter:   6 15:39:13 -4382.538598c -3.52  -2.75
iter:   7 15:40:05 -4382.528862c -4.59  -2.86
iter:   8 15:40:56 -4382.528418c -3.50  -2.91
iter:   9 15:41:48 -4382.517306c -4.36  -3.21
iter:  10 15:42:39 -4382.508444c -4.33  -3.27
iter:  11 15:43:31 -4382.508707c -5.23  -3.36
iter:  12 15:44:22 -4382.508627c -4.86  -3.40
iter:  13 15:45:13 -4382.506273c -5.04  -3.65
iter:  14 15:46:04 -4382.506228c -5.81  -3.82
iter:  15 15:46:54 -4382.506119c -5.42  -3.87
iter:  16 15:47:45 -4382.506105c -6.48  -4.13c
iter:  17 15:48:36 -4382.506077c -6.58  -4.22c
iter:  18 15:49:28 -4382.506105c -6.24  -4.31c
iter:  19 15:50:21 -4382.506134c -7.06  -4.47c
iter:  20 15:51:13 -4382.506107c -7.59c -4.54c

Converged after 20 iterations.

Dipole moment: (-39.122708, -29.159169, 0.034685) |e|*Ang

Energy contributions relative to reference atoms: (reference = -2531597.994586)

Kinetic:       +474.507447
Potential:     -509.335120
External:        +0.000000
XC:            -4346.694528
Entropy (-ST):   -0.588090
Local:           -0.689860
--------------------------
Free energy:   -4382.800152
Extrapolated:  -4382.506107

Showing only first 2 kpts
 Kpt  Band  Eigenvalues  Occupancy
  0   323     -0.89793    1.91380
  0   324     -0.79651    1.77909
  0   325     -0.67944    1.42821
  0   326     -0.56685    0.89512

  1   323     -0.89214    1.90891
  1   324     -0.79669    1.77944
  1   325     -0.69433    1.48701
  1   326     -0.46803    0.46340


Fermi level: -0.58790

No gap

Forces in eV/Ang:
  0 Cu    0.03109   -0.11052    0.04426
  1 Cu   -0.07703   -0.05309   -0.08619
  2 Cu    0.02822   -0.01472    0.00008
  3 Cu    0.01030    0.00583    0.03130
  4 Cu   -0.01094   -0.00082   -0.02831
  5 Cu    0.00720   -0.00332   -0.02329
  6 Cu   -0.01101   -0.02485    0.02652
  7 Cu   -0.04212   -0.14931   -0.07364
  8 Cu   -0.00370    0.09283   -0.03153
  9 Cu   -0.12233   -0.05789    0.01394
 10 Cu    0.00574    0.00642   -0.03209
 11 Cu   -0.02265    0.12682   -0.05469
 12 Cu    0.03679    0.53098    0.69896
 13 Cu    0.05383   -0.08096   -0.12540
 14 Cu   -0.00319    0.01012    0.00223
 15 Cu    0.00469   -0.00580   -0.03836
 16 Cu    0.00532    0.01484    0.03255
 17 Cu    0.04737   -0.13013   -0.06883
 18 Cu   -0.08975   -0.10435    0.21962
 19 Cu   -0.03705    0.05152    0.09769
 20 Cu    0.06886   -0.05736    0.10739
 21 Cu    0.04770   -0.01626   -0.03024
 22 Cu   -0.00918    0.00905    0.01278
 23 Cu    0.00549   -0.01412    0.00884
 24 Cu    0.00194    0.02136   -0.01937
 25 Cu   -0.00868    0.00306   -0.02877
 26 Cu    0.00805   -0.02711    0.01168
 27 Cu    0.05506    0.01528    0.02779
 28 Cu    0.01073    0.01140   -0.13429
 29 Cu    0.02083    0.12628   -0.09717
 30 Cu   -0.03608    0.07246   -0.13056
 31 Cu    0.02296   -0.17511    0.00745
 32 Cu    0.00575    0.06392   -0.07971
 33 Cu   -0.04355    0.08302   -0.03790
 34 Cu   -0.00024   -0.02228   -0.01580
 35 Cu    0.00796    0.00641    0.00962
 36 Cu    0.01578   -0.00092   -0.03634
 37 Cu   -0.01026   -0.00422   -0.02497
 38 Cu   -0.02503   -0.03029   -0.03279
 39 Cu    0.01243    0.05799    0.02447
 40 Cu    0.01448   -0.01341   -0.06846
 41 Cu   -0.05358    0.09688   -0.19716
 42 Cu    0.00567   -0.05593    0.00117
 43 Cu   -0.00689    0.20192    0.15032
 44 Cu    0.02318   -0.01167    0.00838
 45 Cu   -0.00991   -0.00308    0.02881
 46 Cu   -0.01546    0.00702    0.01249
 47 Cu   -0.00276   -0.01363   -0.00874
 48 Cu   -0.02572   -0.03980    0.09522
 49 Cu   -0.00403    0.00628    0.02773
 50 Cu    0.03269   -0.15121   -0.08667
 51 Cu    0.00869   -0.01165    0.06005
 52 Cu    0.00549   -0.00336    0.03422
 53 Cu    0.00510    0.02066    0.03238
 54 Cl   -0.05699    0.18268    0.14115
 55 Cl   -0.06393   -0.18232   -0.18086
 56 Cl    0.50945   -0.49833    0.00554
 57 Cl    0.48793   -0.04421    0.20440
 58 Cl    0.08311   -0.14058    0.30452
 59 Cl    0.16482    0.33743   -0.66711
 60 Cl   -0.54647    0.09678   -0.22774
 61 Cl   -0.50643    0.02229    0.19139

System changes: positions 

Initializing position-dependent things.

Density initialized from wave functions
                                     
                                     
                                     
                                     
                         Cl          
                Cl                   
                                     
         ClCu    Cu Cl  Cu           
               Cu    Cu     Cu       
         Cu    Cu     Cu             
             CCu    Cu    Cu         
       Cu           Cu               
           Cu    CCu    Cu           
         Cu    Cu    CCu    Cu       
                                     
       Cu    CCu    Cu    Cu         
           Cu    CCu    Cu           
                     Cu     Cu       
         Cu    CCu    Cu             
             Cu     Cu    Cu         
       Cu     Cu    Cu               
           Cu  Cl Cu    CuCl         
                                     
                   Cl                
                        Cl           
                                     
                                     
                                     
                                     

Positions:
   0 Cu     1.881302    1.822096   10.055387    ( 0.0000,  0.0000,  0.0000)
   1 Cu     0.572764    0.520046   11.868355    ( 0.0000,  0.0000,  0.0000)
   2 Cu     3.212330    0.550397   11.826277    ( 0.0000,  0.0000,  0.0000)
   3 Cu     1.889957    1.832139   13.716909    ( 0.0000,  0.0000,  0.0000)
   4 Cu     0.577001    0.527164   15.549152    ( 0.0000,  0.0000,  0.0000)
   5 Cu     3.187371    0.519294   15.548903    ( 0.0000,  0.0000,  0.0000)
   6 Cu     1.912902    1.845568   17.395955    ( 0.0000,  0.0000,  0.0000)
   7 Cu     0.562019    0.504655   19.223815    ( 0.0000,  0.0000,  0.0000)
   8 Cu     3.184382    0.528735   19.231073    ( 0.0000,  0.0000,  0.0000)
   9 Cu     0.549412    3.132990   11.848181    ( 0.0000,  0.0000,  0.0000)
  10 Cu     0.578934    3.148811   15.541389    ( 0.0000,  0.0000,  0.0000)
  11 Cu     0.561564    3.205184   19.226948    ( 0.0000,  0.0000,  0.0000)
  12 Cu     7.146524    1.894906   10.036023    ( 0.0000,  0.0000,  0.0000)
  13 Cu     5.789474    0.530087   11.829077    ( 0.0000,  0.0000,  0.0000)
  14 Cu     7.113242    1.835124   13.698336    ( 0.0000,  0.0000,  0.0000)
  15 Cu     5.809782    0.521588   15.540388    ( 0.0000,  0.0000,  0.0000)
  16 Cu     7.114376    1.833946   17.357805    ( 0.0000,  0.0000,  0.0000)
  17 Cu     5.827082    0.472108   19.226394    ( 0.0000,  0.0000,  0.0000)
  18 Cu     4.459696    1.782699    9.935590    ( 0.0000,  0.0000,  0.0000)
  19 Cu     4.487575    4.507061    9.926347    ( 0.0000,  0.0000,  0.0000)
  20 Cu     3.213015    3.140188   11.849036    ( 0.0000,  0.0000,  0.0000)
  21 Cu     5.809451    3.129473   11.827069    ( 0.0000,  0.0000,  0.0000)
  22 Cu     4.496402    1.837809   13.712196    ( 0.0000,  0.0000,  0.0000)
  23 Cu     4.498879    4.446004   13.701867    ( 0.0000,  0.0000,  0.0000)
  24 Cu     3.193176    3.156738   15.547022    ( 0.0000,  0.0000,  0.0000)
  25 Cu     5.801303    3.142002   15.541171    ( 0.0000,  0.0000,  0.0000)
  26 Cu     4.472441    1.841706   17.396962    ( 0.0000,  0.0000,  0.0000)
  27 Cu     4.497923    4.452804   17.417989    ( 0.0000,  0.0000,  0.0000)
  28 Cu     3.199819    3.110828   19.312946    ( 0.0000,  0.0000,  0.0000)
  29 Cu     5.821087    3.174718   19.226490    ( 0.0000,  0.0000,  0.0000)
  30 Cu     1.863670    4.369317   10.091339    ( 0.0000,  0.0000,  0.0000)
  31 Cu     1.896539    7.037791    9.930191    ( 0.0000,  0.0000,  0.0000)
  32 Cu     0.580668    5.776684   11.884153    ( 0.0000,  0.0000,  0.0000)
  33 Cu     3.208445    5.757541   11.843639    ( 0.0000,  0.0000,  0.0000)
  34 Cu     1.886729    4.441970   13.691215    ( 0.0000,  0.0000,  0.0000)
  35 Cu     1.889101    7.075147   13.703904    ( 0.0000,  0.0000,  0.0000)
  36 Cu     0.583934    5.759814   15.534789    ( 0.0000,  0.0000,  0.0000)
  37 Cu     3.183499    5.753461   15.535887    ( 0.0000,  0.0000,  0.0000)
  38 Cu     1.893413    4.450550   17.405819    ( 0.0000,  0.0000,  0.0000)
  39 Cu     1.901657    7.069050   17.436635    ( 0.0000,  0.0000,  0.0000)
  40 Cu     0.575826    5.761305   19.188501    ( 0.0000,  0.0000,  0.0000)
  41 Cu     3.159720    5.814195   19.303099    ( 0.0000,  0.0000,  0.0000)
  42 Cu     7.123506    4.396400   10.020380    ( 0.0000,  0.0000,  0.0000)
  43 Cu     7.084013    7.100598   10.033167    ( 0.0000,  0.0000,  0.0000)
  44 Cu     5.782679    5.737123   11.858304    ( 0.0000,  0.0000,  0.0000)
  45 Cu     7.112461    4.452115   13.716335    ( 0.0000,  0.0000,  0.0000)
  46 Cu     7.102927    7.070544   13.696624    ( 0.0000,  0.0000,  0.0000)
  47 Cu     5.807305    5.756738   15.552621    ( 0.0000,  0.0000,  0.0000)
  48 Cu     7.110248    4.437055   17.407735    ( 0.0000,  0.0000,  0.0000)
  49 Cu     7.128953    7.074136   17.369484    ( 0.0000,  0.0000,  0.0000)
  50 Cu     5.845494    5.701251   19.227378    ( 0.0000,  0.0000,  0.0000)
  51 Cu     4.516815    7.114788   10.045703    ( 0.0000,  0.0000,  0.0000)
  52 Cu     4.507550    7.074446   13.711231    ( 0.0000,  0.0000,  0.0000)
  53 Cu     4.471507    7.051152   17.395118    ( 0.0000,  0.0000,  0.0000)
  54 Cl     3.092004    4.525636   21.170653    ( 0.0000,  0.0000,  0.0000)
  55 Cl     4.545447    3.070429    8.080944    ( 0.0000,  0.0000,  0.0000)
  56 Cl     2.253536    5.441362    8.168727    ( 0.0000,  0.0000,  0.0000)
  57 Cl     0.923610    1.840680   21.056290    ( 0.0000,  0.0000,  0.0000)
  58 Cl     5.868417    6.983198   21.099272    ( 0.0000,  0.0000,  0.0000)
  59 Cl     7.149214    0.771619    8.071155    ( 0.0000,  0.0000,  0.0000)
  60 Cl     6.747042    5.802025    8.189343    ( 0.0000,  0.0000,  0.0000)
  61 Cl     5.455194    1.838932   21.055694    ( 0.0000,  0.0000,  0.0000)

Unit cell:
           periodic     x           y           z      points  spacing
  1. axis:    yes    7.851007    0.000000    0.000000    45     0.1655
  2. axis:    yes    2.617002    7.851007    0.000000    48     0.1636
  3. axis:    yes    0.000000    0.000000   30.683867   175     0.1753

  Lengths:   7.851007   8.275688  30.683867
  Angles:   90.000000  90.000000  71.565053

Effective grid spacing dv^(1/3) = 0.1710

     iter     time        total  log10-change:
                         energy  eigst   dens
iter:   1 15:52:37 -4383.632262  -1.91
iter:   2 15:53:30 -4382.967332  -2.85  -2.31
iter:   3 15:54:23 -4382.956734  -3.41  -2.60
iter:   4 15:55:16 -4382.850596c -3.73  -2.60
iter:   5 15:56:10 -4382.807222c -3.33  -2.76
iter:   6 15:57:04 -4382.787562c -3.88  -3.05
iter:   7 15:57:57 -4382.791851c -4.38  -3.21
iter:   8 15:58:51 -4382.785658c -4.84  -3.35
iter:   9 15:59:44 -4382.784828c -4.69  -3.50
iter:  10 16:00:37 -4382.784325c -5.62  -3.63
iter:  11 16:01:33 -4382.783970c -5.94  -3.68
iter:  12 16:02:27 -4382.783821c -5.36  -3.78
iter:  13 16:03:21 -4382.783633c -6.16  -3.99
iter:  14 16:04:14 -4382.783585c -6.77  -4.18c
iter:  15 16:05:07 -4382.783545c -6.46  -4.28c
iter:  16 16:06:01 -4382.783529c -6.96  -4.46c
iter:  17 16:06:54 -4382.783536c -7.53c -4.61c

Converged after 17 iterations.

Dipole moment: (-38.037333, -28.626562, 0.053118) |e|*Ang

Energy contributions relative to reference atoms: (reference = -2531597.994586)

Kinetic:       +467.412273
Potential:     -503.778764
External:        +0.000000
XC:            -4345.394917
Entropy (-ST):   -0.590931
Local:           -0.726663
--------------------------
Free energy:   -4383.079002
Extrapolated:  -4382.783536

Showing only first 2 kpts
 Kpt  Band  Eigenvalues  Occupancy
  0   323     -0.94924    1.90429
  0   324     -0.85640    1.77434
  0   325     -0.73697    1.40859
  0   326     -0.62802    0.88963

  1   323     -0.93774    1.89325
  1   324     -0.86296    1.78715
  1   325     -0.76303    1.51111
  1   326     -0.53910    0.49542


Fermi level: -0.65018

No gap

Forces in eV/Ang:
  0 Cu   -0.03346   -0.04827    0.00609
  1 Cu   -0.04474   -0.08732   -0.06023
  2 Cu   -0.02090   -0.03973    0.09318
  3 Cu   -0.01517   -0.00829   -0.01770
  4 Cu   -0.00507    0.00499    0.00337
  5 Cu    0.00416    0.00578    0.00580
  6 Cu   -0.03640   -0.01757    0.04022
  7 Cu    0.01146    0.06153    0.05177
  8 Cu    0.00505   -0.05949    0.10770
  9 Cu    0.07628    0.08205    0.09866
 10 Cu   -0.00901   -0.00698    0.00095
 11 Cu   -0.00221   -0.05724    0.06241
 12 Cu   -0.01525   -0.27170   -0.21049
 13 Cu    0.07081   -0.07610   -0.07479
 14 Cu   -0.01246   -0.01750   -0.01292
 15 Cu    0.00223    0.00186    0.00386
 16 Cu    0.00334    0.00484    0.06000
 17 Cu   -0.01580    0.04280    0.05816
 18 Cu    0.01400    0.06393    0.02165
 19 Cu   -0.01950   -0.07610   -0.06180
 20 Cu   -0.00270    0.00515    0.04104
 21 Cu   -0.07837    0.06936    0.07496
 22 Cu    0.02548   -0.02245   -0.00731
 23 Cu    0.00729    0.01450   -0.01441
 24 Cu    0.00304   -0.00727    0.00731
 25 Cu    0.00554   -0.00554    0.00844
 26 Cu    0.03440   -0.01882    0.03139
 27 Cu    0.00772    0.00379   -0.00787
 28 Cu   -0.00306    0.09159    0.02031
 29 Cu    0.01527   -0.07919    0.03013
 30 Cu   -0.07482    0.02321   -0.03916
 31 Cu    0.00880    0.15879   -0.13323
 32 Cu   -0.00169    0.00916   -0.09499
 33 Cu   -0.04475    0.02837   -0.02979
 34 Cu   -0.01715    0.00704   -0.04343
 35 Cu   -0.01014   -0.00606   -0.01669
 36 Cu   -0.00603    0.00511    0.01762
 37 Cu    0.00609    0.01359    0.00728
 38 Cu   -0.01172   -0.02077   -0.03963
 39 Cu   -0.01703    0.03024   -0.06902
 40 Cu   -0.02353    0.00048   -0.02477
 41 Cu    0.00539   -0.02541   -0.04803
 42 Cu   -0.01374    0.24276   -0.09814
 43 Cu    0.03120   -0.04522   -0.03214
 44 Cu    0.03122   -0.01409   -0.01093
 45 Cu    0.00392    0.01399   -0.01140
 46 Cu    0.01376   -0.00183   -0.01198
 47 Cu    0.00286   -0.01225    0.01160
 48 Cu    0.00618   -0.01339    0.00911
 49 Cu   -0.02376    0.00255    0.03702
 50 Cu    0.01020    0.05174    0.04633
 51 Cu   -0.00198   -0.03281    0.01360
 52 Cu   -0.00637   -0.00720   -0.01140
 53 Cu    0.04952    0.02057    0.03218
 54 Cl   -0.06617    0.18593   -0.06033
 55 Cl   -0.04184   -0.22974    0.06892
 56 Cl    0.18244   -0.14593    0.01230
 57 Cl    0.17372   -0.04867   -0.06113
 58 Cl    0.09263   -0.15554    0.01295
 59 Cl    0.21641    0.30211    0.20622
 60 Cl   -0.26028    0.10591    0.04810
 61 Cl   -0.18790    0.02352   -0.07108

System changes: positions 

Initializing position-dependent things.

Density initialized from wave functions
                                     
                                     
                                     
                                     
                         Cl          
                Cl                   
                                     
         ClCu    Cu Cl  Cu           
               Cu    Cu     Cu       
         Cu    Cu     Cu             
       Cu    CCu   Cu     Cu         
                    Cu               
           Cu    CCu    Cu           
         Cu    Cu    CCu    Cu       
                                     
       Cu    CCu   CCu    Cu         
           Cu    CCu   CCu           
                     Cu     Cu       
         Cu    Cu     Cu             
             Cu    Cu     Cu         
       Cu     Cu    Cu               
           Cu  Cl Cu    CuCl         
                                     
                   Cl                
                        Cl           
                                     
                                     
                                     
                                     

Positions:
   0 Cu     1.881529    1.807698   10.059492    ( 0.0000,  0.0000,  0.0000)
   1 Cu     0.564088    0.507898   11.858452    ( 0.0000,  0.0000,  0.0000)
   2 Cu     3.211166    0.545582   11.838476    ( 0.0000,  0.0000,  0.0000)
   3 Cu     1.889169    1.831056   13.718015    ( 0.0000,  0.0000,  0.0000)
   4 Cu     0.575534    0.527638   15.546695    ( 0.0000,  0.0000,  0.0000)
   5 Cu     3.188462    0.519445   15.547472    ( 0.0000,  0.0000,  0.0000)
   6 Cu     1.908524    1.841679   17.399387    ( 0.0000,  0.0000,  0.0000)
   7 Cu     0.558787    0.504111   19.233114    ( 0.0000,  0.0000,  0.0000)
   8 Cu     3.184565    0.525065   19.249325    ( 0.0000,  0.0000,  0.0000)
   9 Cu     0.550373    3.138362   11.861559    ( 0.0000,  0.0000,  0.0000)
  10 Cu     0.578498    3.148961   15.538624    ( 0.0000,  0.0000,  0.0000)
  11 Cu     0.560120    3.204745   19.239074    ( 0.0000,  0.0000,  0.0000)
  12 Cu     7.146551    1.895193   10.043529    ( 0.0000,  0.0000,  0.0000)
  13 Cu     5.800205    0.516801   11.815067    ( 0.0000,  0.0000,  0.0000)
  14 Cu     7.111429    1.833857   13.697140    ( 0.0000,  0.0000,  0.0000)
  15 Cu     5.810402    0.521178   15.537045    ( 0.0000,  0.0000,  0.0000)
  16 Cu     7.115208    1.836148   17.364637    ( 0.0000,  0.0000,  0.0000)
  17 Cu     5.830510    0.470347   19.235758    ( 0.0000,  0.0000,  0.0000)
  18 Cu     4.453526    1.787164    9.949782    ( 0.0000,  0.0000,  0.0000)
  19 Cu     4.482525    4.499360    9.923686    ( 0.0000,  0.0000,  0.0000)
  20 Cu     3.216926    3.136904   11.861706    ( 0.0000,  0.0000,  0.0000)
  21 Cu     5.803577    3.135432   11.834816    ( 0.0000,  0.0000,  0.0000)
  22 Cu     4.498548    1.836004   13.712429    ( 0.0000,  0.0000,  0.0000)
  23 Cu     4.499934    4.446366   13.700730    ( 0.0000,  0.0000,  0.0000)
  24 Cu     3.193809    3.158446   15.546636    ( 0.0000,  0.0000,  0.0000)
  25 Cu     5.800971    3.141632   15.539530    ( 0.0000,  0.0000,  0.0000)
  26 Cu     4.476463    1.837779   17.398118    ( 0.0000,  0.0000,  0.0000)
  27 Cu     4.501900    4.454773   17.417128    ( 0.0000,  0.0000,  0.0000)
  28 Cu     3.200482    3.126499   19.307475    ( 0.0000,  0.0000,  0.0000)
  29 Cu     5.823536    3.170180   19.231792    ( 0.0000,  0.0000,  0.0000)
  30 Cu     1.852199    4.365943   10.088638    ( 0.0000,  0.0000,  0.0000)
  31 Cu     1.898356    7.040315    9.887742    ( 0.0000,  0.0000,  0.0000)
  32 Cu     0.580507    5.781324   11.869862    ( 0.0000,  0.0000,  0.0000)
  33 Cu     3.201453    5.765975   11.840407    ( 0.0000,  0.0000,  0.0000)
  34 Cu     1.884930    4.440511   13.684619    ( 0.0000,  0.0000,  0.0000)
  35 Cu     1.888996    7.075338   13.703515    ( 0.0000,  0.0000,  0.0000)
  36 Cu     0.584765    5.760054   15.533230    ( 0.0000,  0.0000,  0.0000)
  37 Cu     3.183027    5.754059   15.534847    ( 0.0000,  0.0000,  0.0000)
  38 Cu     1.890794    4.446458   17.397051    ( 0.0000,  0.0000,  0.0000)
  39 Cu     1.900701    7.076452   17.429104    ( 0.0000,  0.0000,  0.0000)
  40 Cu     0.576208    5.759857   19.180574    ( 0.0000,  0.0000,  0.0000)
  41 Cu     3.154453    5.814424   19.285481    ( 0.0000,  0.0000,  0.0000)
  42 Cu     7.121090    4.424100   10.001170    ( 0.0000,  0.0000,  0.0000)
  43 Cu     7.086653    7.106674   10.030655    ( 0.0000,  0.0000,  0.0000)
  44 Cu     5.786856    5.734370   11.860163    ( 0.0000,  0.0000,  0.0000)
  45 Cu     7.112042    4.453643   13.718460    ( 0.0000,  0.0000,  0.0000)
  46 Cu     7.102781    7.071136   13.696770    ( 0.0000,  0.0000,  0.0000)
  47 Cu     5.807557    5.754325   15.553751    ( 0.0000,  0.0000,  0.0000)
  48 Cu     7.109593    4.432494   17.412431    ( 0.0000,  0.0000,  0.0000)
  49 Cu     7.126028    7.073961   17.373015    ( 0.0000,  0.0000,  0.0000)
  50 Cu     5.848922    5.700977   19.235812    ( 0.0000,  0.0000,  0.0000)
  51 Cu     4.517765    7.110788   10.050400    ( 0.0000,  0.0000,  0.0000)
  52 Cu     4.507325    7.073701   13.713338    ( 0.0000,  0.0000,  0.0000)
  53 Cu     4.477452    7.054650   17.398179    ( 0.0000,  0.0000,  0.0000)
  54 Cl     3.079061    4.565442   21.167984    ( 0.0000,  0.0000,  0.0000)
  55 Cl     4.533570    3.024906    8.082874    ( 0.0000,  0.0000,  0.0000)
  56 Cl     2.326225    5.395444    8.167270    ( 0.0000,  0.0000,  0.0000)
  57 Cl     0.989922    1.831062   21.055084    ( 0.0000,  0.0000,  0.0000)
  58 Cl     5.886775    6.950658   21.116062    ( 0.0000,  0.0000,  0.0000)
  59 Cl     7.189566    0.840867    8.073801    ( 0.0000,  0.0000,  0.0000)
  60 Cl     6.663951    5.827242    8.187022    ( 0.0000,  0.0000,  0.0000)
  61 Cl     5.385503    1.844526   21.052078    ( 0.0000,  0.0000,  0.0000)

Unit cell:
           periodic     x           y           z      points  spacing
  1. axis:    yes    7.851007    0.000000    0.000000    45     0.1655
  2. axis:    yes    2.617002    7.851007    0.000000    48     0.1636
  3. axis:    yes    0.000000    0.000000   30.683867   175     0.1753

  Lengths:   7.851007   8.275688  30.683867
  Angles:   90.000000  90.000000  71.565053

Effective grid spacing dv^(1/3) = 0.1710

     iter     time        total  log10-change:
                         energy  eigst   dens
iter:   1 16:08:17 -4382.976637  -2.44
iter:   2 16:09:09 -4382.963646  -3.50  -2.78
iter:   3 16:10:03 -4382.923400c -4.07  -2.83
iter:   4 16:10:57 -4382.902306c -4.24  -2.93
iter:   5 16:11:50 -4382.901815c -4.26  -3.15
iter:   6 16:12:43 -4382.900499c -4.29  -3.32
iter:   7 16:13:37 -4382.900244c -5.47  -3.58
iter:   8 16:14:30 -4382.897974c -5.06  -3.67
iter:   9 16:15:23 -4382.898046c -5.56  -3.82
iter:  10 16:16:16 -4382.898106c -5.89  -3.87
iter:  11 16:17:09 -4382.897880c -6.43  -4.03c
iter:  12 16:18:03 -4382.897651c -5.90  -4.16c
iter:  13 16:18:57 -4382.897656c -7.07  -4.43c
iter:  14 16:19:50 -4382.897697c -6.99  -4.46c
iter:  15 16:20:43 -4382.897685c -7.48c -4.65c

Converged after 15 iterations.

Dipole moment: (-34.880413, -28.292468, 0.037907) |e|*Ang

Energy contributions relative to reference atoms: (reference = -2531597.994586)

Kinetic:       +467.057913
Potential:     -503.586651
External:        +0.000000
XC:            -4345.355070
Entropy (-ST):   -0.593326
Local:           -0.717214
--------------------------
Free energy:   -4383.194347
Extrapolated:  -4382.897685

Showing only first 2 kpts
 Kpt  Band  Eigenvalues  Occupancy
  0   323     -0.93012    1.90027
  0   324     -0.84151    1.77415
  0   325     -0.71511    1.37874
  0   326     -0.61300    0.88851

  1   323     -0.91058    1.88003
  1   324     -0.84826    1.78731
  1   325     -0.74974    1.51661
  1   326     -0.53041    0.51853


Fermi level: -0.63540

No gap

Forces in eV/Ang:
  0 Cu   -0.04581    0.01299    0.02444
  1 Cu   -0.00359   -0.02916   -0.01151
  2 Cu   -0.01343   -0.03388    0.05967
  3 Cu   -0.02457   -0.01908   -0.02522
  4 Cu    0.00443    0.00956    0.01631
  5 Cu    0.00027    0.00914    0.01933
  6 Cu   -0.00086   -0.00869    0.04259
  7 Cu    0.00909    0.04850    0.01333
  8 Cu    0.00575   -0.05059    0.11236
  9 Cu    0.04174    0.06840   -0.01501
 10 Cu   -0.01470   -0.01772    0.00579
 11 Cu    0.00466   -0.05664    0.03911
 12 Cu   -0.02198   -0.10135   -0.06612
 13 Cu    0.01930   -0.01288   -0.02348
 14 Cu   -0.00656   -0.02513   -0.03460
 15 Cu   -0.00294    0.00915    0.02570
 16 Cu    0.00228   -0.00567    0.04354
 17 Cu   -0.02207    0.03897    0.03597
 18 Cu    0.02825    0.01606    0.08367
 19 Cu   -0.02804   -0.08547   -0.07329
 20 Cu   -0.05375    0.03455   -0.03207
 21 Cu   -0.01358    0.04606    0.00763
 22 Cu    0.03069   -0.03270   -0.00889
 23 Cu   -0.00950    0.02983   -0.00079
 24 Cu    0.00171   -0.02644    0.01080
 25 Cu    0.01266   -0.01347    0.02008
 26 Cu    0.00079   -0.00937    0.04035
 27 Cu   -0.00131   -0.00559   -0.00340
 28 Cu   -0.00539    0.06573    0.04895
 29 Cu    0.01715   -0.05778    0.01031
 30 Cu   -0.07033   -0.02299    0.04905
 31 Cu    0.01103    0.13462   -0.10206
 32 Cu    0.00205   -0.00847   -0.06659
 33 Cu   -0.02170   -0.03264   -0.03955
 34 Cu   -0.00785    0.03850   -0.00648
 35 Cu   -0.02133   -0.01981   -0.01161
 36 Cu   -0.01856    0.00480    0.03288
 37 Cu    0.01455    0.01712    0.01953
 38 Cu   -0.00974   -0.01414   -0.01279
 39 Cu   -0.01466    0.02087   -0.03683
 40 Cu   -0.01716    0.00553   -0.00860
 41 Cu    0.02578    0.00457   -0.05792
 42 Cu   -0.01825    0.10207    0.00099
 43 Cu    0.03607   -0.03508   -0.01924
 44 Cu    0.00003   -0.00399   -0.01817
 45 Cu    0.01162    0.02331   -0.01291
 46 Cu    0.03201   -0.01531   -0.01436
 47 Cu    0.00706   -0.00119    0.01572
 48 Cu    0.00842   -0.00522   -0.00097
 49 Cu   -0.02137    0.00959    0.03164
 50 Cu   -0.00811    0.02043    0.00263
 51 Cu    0.01839   -0.05769   -0.00475
 52 Cu   -0.01179   -0.01159   -0.01967
 53 Cu    0.03636    0.02016    0.02854
 54 Cl   -0.07981    0.14760   -0.05406
 55 Cl   -0.00708   -0.20789    0.02039
 56 Cl    0.02382    0.11678   -0.01915
 57 Cl    0.05021   -0.04031   -0.05961
 58 Cl    0.10099   -0.12397    0.00234
 59 Cl    0.25849    0.03679    0.05990
 60 Cl   -0.15484    0.08906    0.01517
 61 Cl   -0.05894    0.02052   -0.07081

System changes: positions 

Initializing position-dependent things.

Density initialized from wave functions
                                     
                                     
                                     
                                     
                        Cl           
                Cl                   
                                     
         ClCu    Cu Cl Cu            
               Cu    Cu    Cu        
         Cu    Cu     Cu             
       Cu    CCu   CCu    Cu         
                                     
           Cu    CCu   CCu           
         Cu    Cu    CCu   Cu        
                                     
       Cu    CCu   CCu    Cu         
           Cu    CCu   CCu           
                     Cu    Cu        
         Cu    Cu     Cu             
             Cu    Cu     Cu         
       Cu     Cu    Cu               
           Cu  Cl Cu    Cul          
                                     
                  Cl                 
                        Cl           
                                     
                                     
                                     
                                     

Positions:
   0 Cu     1.875982    1.798426   10.067922    ( 0.0000,  0.0000,  0.0000)
   1 Cu     0.557304    0.495882   11.850093    ( 0.0000,  0.0000,  0.0000)
   2 Cu     3.209177    0.537068   11.855182    ( 0.0000,  0.0000,  0.0000)
   3 Cu     1.884976    1.827028   13.715957    ( 0.0000,  0.0000,  0.0000)
   4 Cu     0.575164    0.529543   15.546831    ( 0.0000,  0.0000,  0.0000)
   5 Cu     3.189364    0.520855   15.549075    ( 0.0000,  0.0000,  0.0000)
   6 Cu     1.906545    1.837143   17.407854    ( 0.0000,  0.0000,  0.0000)
   7 Cu     0.556343    0.506413   19.240320    ( 0.0000,  0.0000,  0.0000)
   8 Cu     3.185395    0.517641   19.280115    ( 0.0000,  0.0000,  0.0000)
   9 Cu     0.553052    3.150472   11.865561    ( 0.0000,  0.0000,  0.0000)
  10 Cu     0.576014    3.146371   15.536662    ( 0.0000,  0.0000,  0.0000)
  11 Cu     0.559907    3.199681   19.253188    ( 0.0000,  0.0000,  0.0000)
  12 Cu     7.143742    1.898290   10.056599    ( 0.0000,  0.0000,  0.0000)
  13 Cu     5.809963    0.505640   11.801150    ( 0.0000,  0.0000,  0.0000)
  14 Cu     7.109241    1.829230   13.690528    ( 0.0000,  0.0000,  0.0000)
  15 Cu     5.810357    0.522294   15.537903    ( 0.0000,  0.0000,  0.0000)
  16 Cu     7.116261    1.837070   17.375035    ( 0.0000,  0.0000,  0.0000)
  17 Cu     5.831135    0.471078   19.246730    ( 0.0000,  0.0000,  0.0000)
  18 Cu     4.450936    1.789888    9.978874    ( 0.0000,  0.0000,  0.0000)
  19 Cu     4.473420    4.481151    9.912144    ( 0.0000,  0.0000,  0.0000)
  20 Cu     3.211512    3.139312   11.866303    ( 0.0000,  0.0000,  0.0000)
  21 Cu     5.800907    3.145128   11.838658    ( 0.0000,  0.0000,  0.0000)
  22 Cu     4.504529    1.829797   13.711659    ( 0.0000,  0.0000,  0.0000)
  23 Cu     4.498773    4.451138   13.700464    ( 0.0000,  0.0000,  0.0000)
  24 Cu     3.194581    3.155963   15.547619    ( 0.0000,  0.0000,  0.0000)
  25 Cu     5.802514    3.139145   15.540810    ( 0.0000,  0.0000,  0.0000)
  26 Cu     4.478199    1.833160   17.404382    ( 0.0000,  0.0000,  0.0000)
  27 Cu     4.505657    4.455554   17.416467    ( 0.0000,  0.0000,  0.0000)
  28 Cu     3.200440    3.148354   19.308967    ( 0.0000,  0.0000,  0.0000)
  29 Cu     5.827837    3.162250   19.235808    ( 0.0000,  0.0000,  0.0000)
  30 Cu     1.833093    4.356573   10.096623    ( 0.0000,  0.0000,  0.0000)
  31 Cu     1.902062    7.056584    9.837631    ( 0.0000,  0.0000,  0.0000)
  32 Cu     0.580955    5.784256   11.849855    ( 0.0000,  0.0000,  0.0000)
  33 Cu     3.193211    5.767056   11.831897    ( 0.0000,  0.0000,  0.0000)
  34 Cu     1.882848    4.445493   13.679602    ( 0.0000,  0.0000,  0.0000)
  35 Cu     1.885744    7.072345   13.702198    ( 0.0000,  0.0000,  0.0000)
  36 Cu     0.582708    5.760820   15.536164    ( 0.0000,  0.0000,  0.0000)
  37 Cu     3.184723    5.756818   15.536675    ( 0.0000,  0.0000,  0.0000)
  38 Cu     1.886905    4.440932   17.388518    ( 0.0000,  0.0000,  0.0000)
  39 Cu     1.898282    7.086126   17.419792    ( 0.0000,  0.0000,  0.0000)
  40 Cu     0.575389    5.759206   19.172232    ( 0.0000,  0.0000,  0.0000)
  41 Cu     3.152971    5.817513   19.259519    ( 0.0000,  0.0000,  0.0000)
  42 Cu     7.115979    4.452584    9.989371    ( 0.0000,  0.0000,  0.0000)
  43 Cu     7.093204    7.111599   10.028255    ( 0.0000,  0.0000,  0.0000)
  44 Cu     5.789012    5.731779   11.859728    ( 0.0000,  0.0000,  0.0000)
  45 Cu     7.113438    4.458517   13.719193    ( 0.0000,  0.0000,  0.0000)
  46 Cu     7.107460    7.069073   13.695147    ( 0.0000,  0.0000,  0.0000)
  47 Cu     5.808912    5.752465   15.556945    ( 0.0000,  0.0000,  0.0000)
  48 Cu     7.109817    4.427555   17.417066    ( 0.0000,  0.0000,  0.0000)
  49 Cu     7.120960    7.075485   17.379778    ( 0.0000,  0.0000,  0.0000)
  50 Cu     5.850381    5.698942   19.240516    ( 0.0000,  0.0000,  0.0000)
  51 Cu     4.522439    7.098481   10.053710    ( 0.0000,  0.0000,  0.0000)
  52 Cu     4.505391    7.071304   13.712851    ( 0.0000,  0.0000,  0.0000)
  53 Cu     4.486549    7.060688   17.404220    ( 0.0000,  0.0000,  0.0000)
  54 Cl     3.055595    4.620937   21.159838    ( 0.0000,  0.0000,  0.0000)
  55 Cl     4.522708    2.955649    8.083332    ( 0.0000,  0.0000,  0.0000)
  56 Cl     2.397976    5.371620    8.160526    ( 0.0000,  0.0000,  0.0000)
  57 Cl     1.060756    1.817074   21.049810    ( 0.0000,  0.0000,  0.0000)
  58 Cl     5.917936    6.905020   21.135895    ( 0.0000,  0.0000,  0.0000)
  59 Cl     7.263764    0.904562    8.068871    ( 0.0000,  0.0000,  0.0000)
  60 Cl     6.562810    5.862246    8.181408    ( 0.0000,  0.0000,  0.0000)
  61 Cl     5.310526    1.852405   21.042862    ( 0.0000,  0.0000,  0.0000)

Unit cell:
           periodic     x           y           z      points  spacing
  1. axis:    yes    7.851007    0.000000    0.000000    45     0.1655
  2. axis:    yes    2.617002    7.851007    0.000000    48     0.1636
  3. axis:    yes    0.000000    0.000000   30.683867   175     0.1753

  Lengths:   7.851007   8.275688  30.683867
  Angles:   90.000000  90.000000  71.565053

Effective grid spacing dv^(1/3) = 0.1710

     iter     time        total  log10-change:
                         energy  eigst   dens
iter:   1 16:22:06 -4383.089786  -2.29
iter:   2 16:22:59 -4382.997516  -3.39  -2.67
iter:   3 16:23:52 -4382.989328c -4.21  -2.92
iter:   4 16:24:45 -4382.994770c -4.26  -3.00
iter:   5 16:25:39 -4382.983646c -4.35  -3.04
iter:   6 16:26:33 -4382.979776c -4.56  -3.27
iter:   7 16:27:26 -4382.980373c -5.20  -3.47
iter:   8 16:28:20 -4382.979041c -5.34  -3.58
iter:   9 16:29:13 -4382.979082c -5.42  -3.82
iter:  10 16:30:06 -4382.978908c -6.04  -4.00
iter:  11 16:30:59 -4382.978905c -6.32  -4.14c
iter:  12 16:31:52 -4382.978809c -6.36  -4.22c
iter:  13 16:32:46 -4382.978775c -6.73  -4.37c
iter:  14 16:33:39 -4382.978777c -7.12  -4.42c
iter:  15 16:34:32 -4382.978780c -7.66c -4.53c

Converged after 15 iterations.

Dipole moment: (-30.869344, -28.219598, 0.048174) |e|*Ang

Energy contributions relative to reference atoms: (reference = -2531597.994586)

Kinetic:       +466.817789
Potential:     -503.457648
External:        +0.000000
XC:            -4345.314093
Entropy (-ST):   -0.597527
Local:           -0.726066
--------------------------
Free energy:   -4383.277544
Extrapolated:  -4382.978780

Showing only first 2 kpts
 Kpt  Band  Eigenvalues  Occupancy
  0   323     -0.91100    1.89454
  0   324     -0.82950    1.77658
  0   325     -0.69329    1.34134
  0   326     -0.59831    0.88129

  1   323     -0.88388    1.86392
  1   324     -0.83495    1.78717
  1   325     -0.73947    1.52740
  1   326     -0.52924    0.56617


Fermi level: -0.62216

No gap

Forces in eV/Ang:
  0 Cu   -0.02972    0.00576    0.01282
  1 Cu    0.03209    0.00252    0.01575
  2 Cu   -0.01550   -0.01652   -0.00121
  3 Cu   -0.01394    0.00440   -0.02232
  4 Cu    0.00777    0.00634    0.01052
  5 Cu   -0.00279    0.00041    0.00084
  6 Cu    0.03204    0.00647    0.03874
  7 Cu   -0.00922    0.01114   -0.03342
  8 Cu    0.00002   -0.02179    0.09711
  9 Cu   -0.02411    0.00740   -0.01621
 10 Cu   -0.00841   -0.01989   -0.00120
 11 Cu    0.00350   -0.02275   -0.00285
 12 Cu   -0.03950    0.00543   -0.01983
 13 Cu   -0.01703    0.02555    0.03103
 14 Cu    0.00590   -0.00667   -0.04220
 15 Cu   -0.00365    0.01003    0.02455
 16 Cu    0.00244   -0.00688    0.01531
 17 Cu   -0.00877    0.01066   -0.00475
 18 Cu    0.02084   -0.03089    0.11501
 19 Cu   -0.03898   -0.07010   -0.09372
 20 Cu   -0.03509    0.01517   -0.02427
 21 Cu    0.00511    0.01837   -0.01178
 22 Cu    0.00559   -0.00198   -0.02162
 23 Cu   -0.01546    0.00323    0.01068
 24 Cu   -0.00145   -0.02644   -0.00688
 25 Cu    0.00896   -0.01145    0.00818
 26 Cu   -0.03015    0.00581    0.04454
 27 Cu   -0.00876   -0.01926   -0.00686
 28 Cu    0.00099    0.01524    0.05233
 29 Cu    0.01953   -0.00933   -0.02334
 30 Cu    0.00323    0.08673   -0.11334
 31 Cu    0.02190    0.06755   -0.05741
 32 Cu    0.00261    0.00989   -0.01923
 33 Cu    0.00682   -0.04497   -0.04304
 34 Cu   -0.00112    0.03288    0.04086
 35 Cu   -0.01392   -0.01854   -0.00100
 36 Cu   -0.01520    0.00144    0.03800
 37 Cu    0.01003    0.01211    0.02860
 38 Cu   -0.00454   -0.00907    0.01122
 39 Cu   -0.01097    0.00608    0.00787
 40 Cu   -0.00019    0.00237    0.00869
 41 Cu    0.03211    0.04740   -0.07919
 42 Cu   -0.04497    0.01956    0.01125
 43 Cu    0.03230   -0.03030   -0.02875
 44 Cu   -0.02774    0.00420   -0.01856
 45 Cu    0.00688    0.00522   -0.00902
 46 Cu    0.02458   -0.01966   -0.00300
 47 Cu    0.00580    0.00926    0.00672
 48 Cu    0.01038   -0.00609   -0.00270
 49 Cu   -0.01264    0.01585    0.02343
 50 Cu   -0.02197   -0.01722   -0.03679
 51 Cu    0.03054   -0.05652   -0.03521
 52 Cu   -0.01002   -0.01525   -0.00945
 53 Cu    0.01507    0.01772    0.01217
 54 Cl   -0.10135    0.08438   -0.00075
 55 Cl    0.00110   -0.16041   -0.02268
 56 Cl   -0.09462    0.20193    0.11788
 57 Cl   -0.02065   -0.02348   -0.00951
 58 Cl    0.11124   -0.08280    0.02287
 59 Cl    0.29774   -0.09651   -0.02279
 60 Cl   -0.08905    0.06525    0.04854
 61 Cl    0.01793    0.02367   -0.02162

System changes: positions 

Initializing position-dependent things.

Density initialized from wave functions
                                      
                                      
                                      
                                      
                         Cl           
                Cl                    
                                      
          Clu    Cu Cl  Cu            
               Cu    Cu     Cu        
         Cu     Cu    Cu              
       Cu    CCu    Cu    Cu          
                                      
           CCu   CCu    CCu           
         Cu    CCu   CCu    Cu        
                                      
       Cu    CCu    Cu    Cu          
           Cu    CCu    Cu            
                      Cu    Cu        
         Cu    CCu    Cu              
             Cu     Cu    Cu          
       Cu     Cu    Cu                
           Cu  Cl Cu     Cu           
                                      
                   Cl                 
                         Cl           
                                      
                                      
                                      
                                      

Positions:
   0 Cu     1.865631    1.781122   10.083654    ( 0.0000,  0.0000,  0.0000)
   1 Cu     0.544643    0.473459   11.834492    ( 0.0000,  0.0000,  0.0000)
   2 Cu     3.205467    0.521179   11.886358    ( 0.0000,  0.0000,  0.0000)
   3 Cu     1.877153    1.819512   13.712116    ( 0.0000,  0.0000,  0.0000)
   4 Cu     0.574472    0.533098   15.547085    ( 0.0000,  0.0000,  0.0000)
   5 Cu     3.191048    0.523485   15.552065    ( 0.0000,  0.0000,  0.0000)
   6 Cu     1.902851    1.828679   17.423654    ( 0.0000,  0.0000,  0.0000)
   7 Cu     0.551780    0.510710   19.253766    ( 0.0000,  0.0000,  0.0000)
   8 Cu     3.186946    0.503789   19.337572    ( 0.0000,  0.0000,  0.0000)
   9 Cu     0.558051    3.173070   11.873029    ( 0.0000,  0.0000,  0.0000)
  10 Cu     0.571377    3.141538   15.533001    ( 0.0000,  0.0000,  0.0000)
  11 Cu     0.559511    3.190230   19.279525    ( 0.0000,  0.0000,  0.0000)
  12 Cu     7.138499    1.904069   10.080988    ( 0.0000,  0.0000,  0.0000)
  13 Cu     5.828173    0.484813   11.775180    ( 0.0000,  0.0000,  0.0000)
  14 Cu     7.105158    1.820596   13.678191    ( 0.0000,  0.0000,  0.0000)
  15 Cu     5.810274    0.524377   15.539505    ( 0.0000,  0.0000,  0.0000)
  16 Cu     7.118226    1.838793   17.394440    ( 0.0000,  0.0000,  0.0000)
  17 Cu     5.832302    0.472443   19.267203    ( 0.0000,  0.0000,  0.0000)
  18 Cu     4.446101    1.794973   10.033163    ( 0.0000,  0.0000,  0.0000)
  19 Cu     4.456428    4.447171    9.890607    ( 0.0000,  0.0000,  0.0000)
  20 Cu     3.201408    3.143805   11.874883    ( 0.0000,  0.0000,  0.0000)
  21 Cu     5.795925    3.163223   11.845827    ( 0.0000,  0.0000,  0.0000)
  22 Cu     4.515689    1.818214   13.710222    ( 0.0000,  0.0000,  0.0000)
  23 Cu     4.496608    4.460041   13.699968    ( 0.0000,  0.0000,  0.0000)
  24 Cu     3.196020    3.151330   15.549455    ( 0.0000,  0.0000,  0.0000)
  25 Cu     5.805392    3.134504   15.543198    ( 0.0000,  0.0000,  0.0000)
  26 Cu     4.481437    1.824539   17.416071    ( 0.0000,  0.0000,  0.0000)
  27 Cu     4.512667    4.457011   17.415233    ( 0.0000,  0.0000,  0.0000)
  28 Cu     3.200361    3.189138   19.311751    ( 0.0000,  0.0000,  0.0000)
  29 Cu     5.835864    3.147453   19.243303    ( 0.0000,  0.0000,  0.0000)
  30 Cu     1.797439    4.339088   10.111523    ( 0.0000,  0.0000,  0.0000)
  31 Cu     1.908978    7.086944    9.744118    ( 0.0000,  0.0000,  0.0000)
  32 Cu     0.581791    5.789729   11.812520    ( 0.0000,  0.0000,  0.0000)
  33 Cu     3.177829    5.769074   11.816016    ( 0.0000,  0.0000,  0.0000)
  34 Cu     1.878965    4.454789   13.670239    ( 0.0000,  0.0000,  0.0000)
  35 Cu     1.879675    7.066761   13.699739    ( 0.0000,  0.0000,  0.0000)
  36 Cu     0.578869    5.762249   15.541638    ( 0.0000,  0.0000,  0.0000)
  37 Cu     3.187888    5.761967   15.540088    ( 0.0000,  0.0000,  0.0000)
  38 Cu     1.879648    4.430619   17.372594    ( 0.0000,  0.0000,  0.0000)
  39 Cu     1.893767    7.104179   17.402416    ( 0.0000,  0.0000,  0.0000)
  40 Cu     0.573861    5.757990   19.156666    ( 0.0000,  0.0000,  0.0000)
  41 Cu     3.150206    5.823277   19.211071    ( 0.0000,  0.0000,  0.0000)
  42 Cu     7.106441    4.505739    9.967352    ( 0.0000,  0.0000,  0.0000)
  43 Cu     7.105429    7.120790   10.023777    ( 0.0000,  0.0000,  0.0000)
  44 Cu     5.793036    5.726945   11.858915    ( 0.0000,  0.0000,  0.0000)
  45 Cu     7.116043    4.467612   13.720560    ( 0.0000,  0.0000,  0.0000)
  46 Cu     7.116191    7.065222   13.692120    ( 0.0000,  0.0000,  0.0000)
  47 Cu     5.811440    5.748995   15.562905    ( 0.0000,  0.0000,  0.0000)
  48 Cu     7.110234    4.418339   17.425714    ( 0.0000,  0.0000,  0.0000)
  49 Cu     7.111503    7.078329   17.392399    ( 0.0000,  0.0000,  0.0000)
  50 Cu     5.853103    5.695144   19.249294    ( 0.0000,  0.0000,  0.0000)
  51 Cu     4.531162    7.075514   10.059887    ( 0.0000,  0.0000,  0.0000)
  52 Cu     4.501782    7.066830   13.711942    ( 0.0000,  0.0000,  0.0000)
  53 Cu     4.503524    7.071957   17.415494    ( 0.0000,  0.0000,  0.0000)
  54 Cl     3.011804    4.724497   21.144636    ( 0.0000,  0.0000,  0.0000)
  55 Cl     4.502438    2.826407    8.084187    ( 0.0000,  0.0000,  0.0000)
  56 Cl     2.531872    5.327160    8.147941    ( 0.0000,  0.0000,  0.0000)
  57 Cl     1.192942    1.790970   21.039966    ( 0.0000,  0.0000,  0.0000)
  58 Cl     5.976085    6.819855   21.172907    ( 0.0000,  0.0000,  0.0000)
  59 Cl     7.402228    1.023426    8.059671    ( 0.0000,  0.0000,  0.0000)
  60 Cl     6.374069    5.927568    8.170933    ( 0.0000,  0.0000,  0.0000)
  61 Cl     5.170609    1.867108   21.025664    ( 0.0000,  0.0000,  0.0000)

Unit cell:
           periodic     x           y           z      points  spacing
  1. axis:    yes    7.851007    0.000000    0.000000    45     0.1655
  2. axis:    yes    2.617002    7.851007    0.000000    48     0.1636
  3. axis:    yes    0.000000    0.000000   30.683867   175     0.1753

  Lengths:   7.851007   8.275688  30.683867
  Angles:   90.000000  90.000000  71.565053

Effective grid spacing dv^(1/3) = 0.1710

     iter     time        total  log10-change:
                         energy  eigst   dens
iter:   1 16:35:55 -4383.261888  -1.75
iter:   2 16:36:49 -4383.090499  -2.88  -2.46
iter:   3 16:37:41 -4383.065488c -3.55  -2.61
iter:   4 16:38:34 -4383.004870c -4.08  -2.66
iter:   5 16:39:26 -4382.995962c -3.57  -2.79
iter:   6 16:40:19 -4382.985167c -3.99  -3.02
iter:   7 16:41:14 -4382.985192c -4.78  -3.20
iter:   8 16:42:07 -4382.982960c -5.20  -3.31
iter:   9 16:43:01 -4382.982048c -4.76  -3.46
iter:  10 16:43:54 -4382.981596c -5.59  -3.65
iter:  11 16:44:47 -4382.981329c -5.60  -3.81
iter:  12 16:45:41 -4382.981148c -5.71  -3.93
iter:  13 16:46:34 -4382.981067c -5.52  -4.06c
iter:  14 16:47:29 -4382.981070c -6.38  -4.21c
iter:  15 16:48:23 -4382.980951c -6.13  -4.30c
iter:  16 16:49:16 -4382.980950c -7.32  -4.50c
iter:  17 16:50:10 -4382.980952c -6.75  -4.53c
iter:  18 16:51:03 -4382.980955c -7.59c -4.70c

Converged after 18 iterations.

Dipole moment: (-23.283212, -28.193570, 0.068502) |e|*Ang

Energy contributions relative to reference atoms: (reference = -2531597.994586)

Kinetic:       +466.862777
Potential:     -503.530170
External:        +0.000000
XC:            -4345.264404
Entropy (-ST):   -0.604324
Local:           -0.746996
--------------------------
Free energy:   -4383.283117
Extrapolated:  -4382.980955

Showing only first 2 kpts
 Kpt  Band  Eigenvalues  Occupancy
  0   323     -0.88258    1.88678
  0   324     -0.80844    1.77628
  0   325     -0.65595    1.26688
  0   326     -0.57370    0.86312

  1   323     -0.84260    1.83570
  1   324     -0.80561    1.77059
  1   325     -0.72466    1.54906
  1   326     -0.53838    0.69560


Fermi level: -0.60125

No gap

Forces in eV/Ang:
  0 Cu    0.00173    0.00468   -0.02216
  1 Cu    0.10434    0.05199    0.07122
  2 Cu   -0.02373    0.01983   -0.11819
  3 Cu    0.00205    0.04792   -0.01431
  4 Cu    0.01652    0.00063   -0.00123
  5 Cu   -0.00717   -0.01232   -0.02768
  6 Cu    0.08745    0.04180    0.01520
  7 Cu   -0.03910   -0.04746   -0.09497
  8 Cu   -0.00884    0.01600    0.06884
  9 Cu   -0.15133   -0.11949    0.00881
 10 Cu    0.00564   -0.02200   -0.01534
 11 Cu    0.00819    0.02777   -0.06629
 12 Cu   -0.08188    0.15407   -0.00994
 13 Cu   -0.07813    0.09335    0.14077
 14 Cu    0.03072    0.02782   -0.05537
 15 Cu   -0.00890    0.01174    0.02140
 16 Cu    0.00402   -0.01096   -0.03408
 17 Cu    0.00552   -0.03082   -0.06487
 18 Cu    0.01442   -0.09213    0.14611
 19 Cu   -0.05594   -0.04248   -0.12506
 20 Cu    0.00135   -0.01896   -0.01184
 21 Cu    0.03125   -0.03425   -0.04229
 22 Cu   -0.04092    0.05781   -0.04432
 23 Cu   -0.02349   -0.04623    0.03503
 24 Cu   -0.00639   -0.02808   -0.03430
 25 Cu   -0.00084   -0.00690   -0.01588
 26 Cu   -0.08157    0.03608    0.03563
 27 Cu   -0.02722   -0.04662   -0.01371
 28 Cu    0.01049   -0.06470    0.05966
 29 Cu    0.01744    0.06446   -0.05546
 30 Cu    0.17804    0.26399   -0.43030
 31 Cu    0.04382   -0.03765    0.01706
 32 Cu   -0.00542    0.04160    0.08084
 33 Cu    0.06288   -0.07758   -0.03378
 34 Cu    0.01347    0.02401    0.13399
 35 Cu    0.00439   -0.01165    0.02295
 36 Cu   -0.00844   -0.00488    0.05235
 37 Cu   -0.00035    0.00121    0.04985
 38 Cu    0.01290   -0.00172    0.05868
 39 Cu   -0.00700   -0.02439    0.09182
 40 Cu    0.03566   -0.00212    0.04997
 41 Cu    0.04482    0.11612   -0.11099
 42 Cu   -0.10621   -0.11729    0.00357
 43 Cu    0.01258   -0.04226   -0.09834
 44 Cu   -0.07011    0.02377   -0.00748
 45 Cu   -0.00744   -0.03424    0.00378
 46 Cu    0.01138   -0.02731    0.02631
 47 Cu    0.00423    0.02833   -0.01001
 48 Cu    0.01406   -0.00640   -0.00814
 49 Cu    0.00613    0.02795    0.01083
 50 Cu   -0.05217   -0.07318   -0.10219
 51 Cu    0.05377   -0.05653   -0.11054
 52 Cu   -0.01215   -0.02244    0.01057
 53 Cu   -0.02033    0.01415   -0.01749
 54 Cl   -0.15303    0.00644    0.10193
 55 Cl    0.00756   -0.12758   -0.09875
 56 Cl   -0.28760    0.33638    0.35377
 57 Cl   -0.09062   -0.00777    0.03415
[...]


Fermi level: -0.47812

No gap

Forces in eV/Ang:
  0 Cu   -0.01096   -0.00054    0.02268
  1 Cu   -0.00343    0.01010   -0.01732
  2 Cu   -0.00007   -0.00317    0.00238
  3 Cu    0.00291    0.00598   -0.00009
  4 Cu   -0.00028    0.00270    0.00149
  5 Cu    0.00388    0.00297   -0.00661
  6 Cu   -0.00411   -0.00025    0.00040
  7 Cu    0.00930    0.00178    0.01360
  8 Cu    0.00220    0.00091    0.00921
  9 Cu   -0.00432   -0.01046    0.00927
 10 Cu   -0.00347   -0.00243   -0.00125
 11 Cu    0.00354   -0.00590    0.00929
 12 Cu    0.00075   -0.01142    0.00568
 13 Cu   -0.00282   -0.00519   -0.00223
 14 Cu    0.00252   -0.00091    0.00441
 15 Cu   -0.01617   -0.00234    0.00463
 16 Cu   -0.00060   -0.00301   -0.00237
 17 Cu   -0.00119   -0.00427    0.00704
 18 Cu   -0.00028   -0.00100    0.00926
 19 Cu    0.00480    0.00660   -0.00845
 20 Cu    0.00898   -0.00422   -0.00677
 21 Cu   -0.00914    0.00426   -0.00707
 22 Cu    0.00345   -0.00278   -0.00247
 23 Cu    0.00815    0.00172    0.00528
 24 Cu   -0.00141    0.00183   -0.00385
 25 Cu   -0.00362   -0.00002    0.00266
 26 Cu    0.00337    0.00209    0.00470
 27 Cu   -0.00710    0.00426   -0.00137
 28 Cu    0.00655   -0.01366    0.00674
 29 Cu   -0.00500   -0.01257    0.01903
 30 Cu   -0.00241    0.00060    0.00557
 31 Cu    0.00770    0.01604    0.00617
 32 Cu    0.00094   -0.01237   -0.00888
 33 Cu   -0.00680    0.00559    0.00548
 34 Cu   -0.00404    0.00894   -0.00424
 35 Cu    0.01965   -0.00290    0.00625
 36 Cu   -0.00563   -0.00171    0.00878
 37 Cu    0.00635    0.00100    0.01019
 38 Cu    0.00371    0.00271    0.00297
 39 Cu   -0.00182   -0.00160   -0.00701
 40 Cu   -0.00081    0.00118   -0.01174
 41 Cu    0.01051    0.00158   -0.00007
 42 Cu    0.00020    0.00602    0.00695
 43 Cu    0.01272    0.00940    0.01123
 44 Cu    0.00070    0.00162   -0.00970
 45 Cu    0.01286    0.01737   -0.00111
 46 Cu    0.00441   -0.00669    0.00304
 47 Cu    0.00523   -0.00432    0.00604
 48 Cu    0.00759   -0.00208   -0.00037
 49 Cu   -0.00559   -0.00435    0.01084
 50 Cu    0.00383   -0.00259    0.00641
 51 Cu    0.00244    0.00139    0.01122
 52 Cu   -0.00157   -0.00774   -0.00111
 53 Cu    0.00621   -0.00227    0.00394
 54 Cl    0.02738   -0.02837   -0.00696
 55 Cl   -0.02388    0.01904   -0.02597
 56 Cl   -0.01798    0.00176   -0.01372
 57 Cl    0.00020   -0.01370   -0.01827
 58 Cl   -0.01666    0.00308   -0.01691
 59 Cl   -0.00580    0.01918   -0.04156
 60 Cl   -0.04238   -0.00909   -0.02523
 61 Cl    0.01218    0.01053   -0.03136

System changes: positions 

Initializing position-dependent things.

Density initialized from wave functions
                                        
                                        
                                        
                                        
                           Cl           
              Cl                        
                                        
           Cu    CuCl  Cu               
          Cl   Cu    Cu     Cu          
         Cu     Cu    Cu                
       Cu    CCu    Cu    Cu            
           Cu    Cu     Cu              
            Cu    Cu    Cu              
         Cu    CCu   CCu    Cu          
                                        
       Cu    CCu    Cu    Cu            
           CCu   CCu    Cu              
               Cu           Cu          
         Cu    Cu    CCu                
             Cu    Cu     Cu            
        Cu    Cu    Cu  Cl              
            CuCl  Cu    Cu              
                                        
                  Cl       Cl           
                                        
                                        
                                        
                                        
                                        

Positions:
   0 Cu     1.918630    1.791280    9.983663    ( 0.0000,  0.0000,  0.0000)
   1 Cu     0.592169    0.472629   11.833984    ( 0.0000,  0.0000,  0.0000)
   2 Cu     3.185651    0.504092   11.847311    ( 0.0000,  0.0000,  0.0000)
   3 Cu     1.873615    1.813528   13.691562    ( 0.0000,  0.0000,  0.0000)
   4 Cu     0.560475    0.506050   15.550493    ( 0.0000,  0.0000,  0.0000)
   5 Cu     3.175044    0.501779   15.542344    ( 0.0000,  0.0000,  0.0000)
   6 Cu     1.909024    1.818650   17.415912    ( 0.0000,  0.0000,  0.0000)
   7 Cu     0.435355    0.461289   19.189549    ( 0.0000,  0.0000,  0.0000)
   8 Cu     3.061754    0.494754   19.349764    ( 0.0000,  0.0000,  0.0000)
   9 Cu     0.569408    3.145239   11.812606    ( 0.0000,  0.0000,  0.0000)
  10 Cu     0.582639    3.112489   15.539195    ( 0.0000,  0.0000,  0.0000)
  11 Cu     0.647809    3.090625   19.290500    ( 0.0000,  0.0000,  0.0000)
  12 Cu     7.089819    1.852485    9.979445    ( 0.0000,  0.0000,  0.0000)
  13 Cu     5.827571    0.505915   11.830422    ( 0.0000,  0.0000,  0.0000)
  14 Cu     7.123396    1.810684   13.681839    ( 0.0000,  0.0000,  0.0000)
  15 Cu     5.794265    0.517917   15.529576    ( 0.0000,  0.0000,  0.0000)
  16 Cu     7.110754    1.819464   17.385143    ( 0.0000,  0.0000,  0.0000)
  17 Cu     5.714122    0.549180   19.285391    ( 0.0000,  0.0000,  0.0000)
  18 Cu     4.510685    1.747385   10.047864    ( 0.0000,  0.0000,  0.0000)
  19 Cu     4.468981    4.359526    9.913838    ( 0.0000,  0.0000,  0.0000)
  20 Cu     3.162293    3.128577   11.826941    ( 0.0000,  0.0000,  0.0000)
  21 Cu     5.815559    3.120811   11.847669    ( 0.0000,  0.0000,  0.0000)
  22 Cu     4.491192    1.817814   13.697435    ( 0.0000,  0.0000,  0.0000)
  23 Cu     4.489492    4.417875   13.709143    ( 0.0000,  0.0000,  0.0000)
  24 Cu     3.191786    3.128410   15.546877    ( 0.0000,  0.0000,  0.0000)
  25 Cu     5.812188    3.118722   15.548726    ( 0.0000,  0.0000,  0.0000)
  26 Cu     4.457813    1.816343   17.410847    ( 0.0000,  0.0000,  0.0000)
  27 Cu     4.516054    4.428872   17.393150    ( 0.0000,  0.0000,  0.0000)
  28 Cu     3.304952    3.149174   19.348540    ( 0.0000,  0.0000,  0.0000)
  29 Cu     5.923599    3.178131   19.191632    ( 0.0000,  0.0000,  0.0000)
  30 Cu     1.843637    4.420544    9.983446    ( 0.0000,  0.0000,  0.0000)
  31 Cu     1.901807    7.090410    9.993604    ( 0.0000,  0.0000,  0.0000)
  32 Cu     0.575845    5.746554   11.868001    ( 0.0000,  0.0000,  0.0000)
  33 Cu     3.213934    5.714399   11.824156    ( 0.0000,  0.0000,  0.0000)
  34 Cu     1.877149    4.430952   13.701784    ( 0.0000,  0.0000,  0.0000)
  35 Cu     1.877238    7.043839   13.704861    ( 0.0000,  0.0000,  0.0000)
  36 Cu     0.566500    5.742345   15.563250    ( 0.0000,  0.0000,  0.0000)
  37 Cu     3.170220    5.740899   15.550327    ( 0.0000,  0.0000,  0.0000)
  38 Cu     1.886818    4.411785   17.420378    ( 0.0000,  0.0000,  0.0000)
  39 Cu     1.810783    7.058215   17.425463    ( 0.0000,  0.0000,  0.0000)
  40 Cu     0.560788    5.744631   19.343380    ( 0.0000,  0.0000,  0.0000)
  41 Cu     3.212552    5.777134   19.186893    ( 0.0000,  0.0000,  0.0000)
  42 Cu     7.088708    4.462113   10.018132    ( 0.0000,  0.0000,  0.0000)
  43 Cu     7.168317    7.078245   10.050245    ( 0.0000,  0.0000,  0.0000)
  44 Cu     5.786379    5.711063   11.873244    ( 0.0000,  0.0000,  0.0000)
  45 Cu     7.114298    4.426257   13.721910    ( 0.0000,  0.0000,  0.0000)
  46 Cu     7.107797    7.050159   13.697693    ( 0.0000,  0.0000,  0.0000)
  47 Cu     5.808954    5.737810   15.553349    ( 0.0000,  0.0000,  0.0000)
  48 Cu     7.171894    4.428931   17.429212    ( 0.0000,  0.0000,  0.0000)
  49 Cu     7.090622    7.076488   17.414973    ( 0.0000,  0.0000,  0.0000)
  50 Cu     5.760789    5.713818   19.188826    ( 0.0000,  0.0000,  0.0000)
  51 Cu     4.527192    7.012312    9.987205    ( 0.0000,  0.0000,  0.0000)
  52 Cu     4.492797    7.040675   13.715293    ( 0.0000,  0.0000,  0.0000)
  53 Cu     4.466198    7.053918   17.395673    ( 0.0000,  0.0000,  0.0000)
  54 Cl     2.199300    4.853177   21.037466    ( 0.0000,  0.0000,  0.0000)
  55 Cl     4.471926    2.828558    8.070742    ( 0.0000,  0.0000,  0.0000)
  56 Cl     1.987184    5.758203    8.111775    ( 0.0000,  0.0000,  0.0000)
  57 Cl     1.342665    1.431068   21.052571    ( 0.0000,  0.0000,  0.0000)
  58 Cl     6.785824    6.621100   21.039429    ( 0.0000,  0.0000,  0.0000)
  59 Cl     8.434835    1.620173    8.112374    ( 0.0000,  0.0000,  0.0000)
  60 Cl     6.006726    6.070481    8.290582    ( 0.0000,  0.0000,  0.0000)
  61 Cl     5.051476    2.187278   21.060969    ( 0.0000,  0.0000,  0.0000)

Unit cell:
           periodic     x           y           z      points  spacing
  1. axis:    yes    7.851007    0.000000    0.000000    45     0.1655
  2. axis:    yes    2.617002    7.851007    0.000000    48     0.1636
  3. axis:    yes    0.000000    0.000000   30.683867   175     0.1753

  Lengths:   7.851007   8.275688  30.683867
  Angles:   90.000000  90.000000  71.565053

Effective grid spacing dv^(1/3) = 0.1710

     iter     time        total  log10-change:
                         energy  eigst   dens
iter:   1 22:24:43 -4383.819855  -3.50
iter:   2 22:25:36 -4383.818387  -4.51  -3.33
iter:   3 22:26:29 -4383.813377c -5.22  -3.35
iter:   4 22:27:22 -4383.812519c -5.80  -3.61
iter:   5 22:28:15 -4383.812507c -5.29  -3.74
iter:   6 22:29:08 -4383.812230c -5.65  -3.93
iter:   7 22:30:01 -4383.812303c -6.22  -4.19c
iter:   8 22:30:55 -4383.812254c -6.79  -4.29c
iter:   9 22:31:48 -4383.812202c -6.34  -4.35c
iter:  10 22:32:45 -4383.812203c -7.32  -4.56c
iter:  11 22:33:38 -4383.812191c -7.35  -4.64c
iter:  12 22:34:32 -4383.812190c -7.67c -4.83c

Converged after 12 iterations.

Dipole moment: (-35.050448, -30.351260, 0.152147) |e|*Ang

Energy contributions relative to reference atoms: (reference = -2531597.994586)

Kinetic:       +465.393683
Potential:     -502.471489
External:        +0.000000
XC:            -4345.639535
Entropy (-ST):   -0.625385
Local:           -0.782157
--------------------------
Free energy:   -4384.124882
Extrapolated:  -4383.812190

Showing only first 2 kpts
 Kpt  Band  Eigenvalues  Occupancy
  0   323     -0.73411    1.85618
  0   324     -0.71076    1.82172
  0   325     -0.48791    1.04782
  0   326     -0.45697    0.89355

  1   323     -0.72030    1.83662
  1   324     -0.58679    1.49469
  1   325     -0.54230    1.30931
  1   326     -0.41790    0.70669


Fermi level: -0.47834

No gap

Forces in eV/Ang:
  0 Cu   -0.01579    0.00353    0.01147
  1 Cu   -0.00391    0.01380   -0.01387
  2 Cu   -0.00128   -0.00297    0.00454
  3 Cu    0.00473    0.00478   -0.00233
  4 Cu    0.00184    0.00118    0.00241
  5 Cu    0.00053    0.00004   -0.00546
  6 Cu   -0.00417   -0.00453   -0.00213
  7 Cu    0.00714   -0.00321    0.00971
  8 Cu    0.00642    0.00443    0.00325
  9 Cu   -0.00245   -0.00984    0.00891
 10 Cu   -0.00456   -0.00065   -0.00271
 11 Cu    0.00058   -0.00653    0.01105
 12 Cu    0.00779   -0.01166   -0.00331
 13 Cu   -0.00380   -0.00775    0.00044
 14 Cu    0.00275   -0.00055    0.00473
 15 Cu   -0.01569   -0.00378    0.00208
 16 Cu   -0.00409   -0.00277   -0.00111
 17 Cu    0.00398   -0.00498    0.00372
 18 Cu    0.00278   -0.00105   -0.00090
 19 Cu    0.00148    0.01017   -0.01597
 20 Cu    0.00614   -0.00285   -0.01023
 21 Cu   -0.01087    0.00227   -0.00798
 22 Cu    0.00943   -0.00404   -0.00745
 23 Cu    0.00888    0.00190    0.00236
 24 Cu   -0.00433    0.00360   -0.00317
 25 Cu   -0.00206    0.00236    0.00290
 26 Cu    0.00411    0.00539    0.00608
 27 Cu   -0.00531    0.00255    0.00320
 28 Cu    0.00282   -0.01569    0.00001
 29 Cu    0.00330   -0.00093    0.00112
 30 Cu   -0.00261    0.00223    0.00203
 31 Cu    0.01010    0.00627   -0.00140
 32 Cu    0.00197   -0.01629   -0.00786
 33 Cu   -0.01323    0.00462    0.00899
 34 Cu   -0.00131    0.00879   -0.00847
 35 Cu    0.02186   -0.00063    0.00574
 36 Cu   -0.00223   -0.00017    0.00736
 37 Cu    0.00702    0.00044    0.00882
 38 Cu    0.00475   -0.00062    0.00191
 39 Cu   -0.00007    0.00103   -0.00770
 40 Cu    0.00261    0.00088   -0.00672
 41 Cu    0.00892    0.00207    0.00743
 42 Cu   -0.00072    0.00520    0.00505
 43 Cu    0.00859    0.00902   -0.00207
 44 Cu   -0.00281    0.00495   -0.00481
 45 Cu    0.01245    0.01667   -0.00100
 46 Cu    0.00845   -0.01040    0.00201
 47 Cu    0.00381   -0.00632    0.00725
 48 Cu    0.00194   -0.00738    0.00279
 49 Cu   -0.01081   -0.00205    0.01058
 50 Cu    0.00294   -0.00934    0.00109
 51 Cu    0.00461    0.00030    0.00769
 52 Cu   -0.00172   -0.00517   -0.00391
 53 Cu    0.00988    0.00157    0.00344
 54 Cl    0.01445   -0.00766   -0.01296
 55 Cl   -0.02133    0.00397   -0.00377
 56 Cl   -0.00889   -0.00014    0.02004
 57 Cl   -0.00299   -0.00278    0.00560
 58 Cl   -0.00385   -0.00867   -0.00393
 59 Cl   -0.00068    0.02352   -0.00462
 60 Cl   -0.01942   -0.00701   -0.00556
 61 Cl    0.00702   -0.01003    0.00255

Timing:                                      incl.     excl.
-------------------------------------------------------------------
Density initialized from wave functions:   139.117   139.116   0.5% |
 Symmetrize density:                         0.001     0.001   0.0% |
Forces:                                    628.645   628.645   2.2% ||
Hamiltonian:                               254.059     0.551   0.0% |
 Atomic:                                     8.412     2.299   0.0% |
  XC Correction:                             6.113     6.113   0.0% |
 Calculate atomic Hamiltonians:             53.812    53.812   0.2% |
 Communicate:                                8.737     8.737   0.0% |
 Initialize Hamiltonian:                     0.001     0.001   0.0% |
 Poisson:                                    0.163     0.163   0.0% |
 XC 3D grid:                               182.383    27.951   0.1% |
  VdW-DF integral:                         154.432     4.501   0.0% |
   Convolution:                              9.545     9.545   0.0% |
   FFT:                                      5.466     5.466   0.0% |
   gather:                                  47.594    47.594   0.2% |
   hmm1:                                     2.713     2.713   0.0% |
   hmm2:                                     7.549     7.549   0.0% |
   iFFT:                                     5.857     5.857   0.0% |
   potential:                               64.937     0.594   0.0% |
    collect:                                 8.315     8.315   0.0% |
    p1:                                     35.615    35.615   0.1% |
    p2:                                     10.980    10.980   0.0% |
    sum:                                     9.433     9.433   0.0% |
   splines:                                  6.270     6.270   0.0% |
LCAO initialization:                       248.064     1.226   0.0% |
 LCAO eigensolver:                          15.371     0.001   0.0% |
  Blacs Orbital Layouts:                     0.615     0.000   0.0% |
   General diagonalize:                      0.606     0.606   0.0% |
   Redistribute coefs:                       0.005     0.005   0.0% |
   Send coefs to domains:                    0.004     0.004   0.0% |
  Calculate projections:                     0.004     0.004   0.0% |
  Distribute overlap matrix:                14.223     0.001   0.0% |
   Scalapack redistribute:                   0.010     0.010   0.0% |
   blocked summation:                       14.212    14.212   0.0% |
  Potential matrix:                          0.303     0.303   0.0% |
  SparseAtomicCorrection:                    0.023     0.023   0.0% |
  Sum over cells:                            0.201     0.201   0.0% |
 LCAO to grid:                             228.832   228.832   0.8% |
 Set positions (LCAO WFS):                   2.635     0.011   0.0% |
  Basic WFS set positions:                   0.004     0.004   0.0% |
  Basis functions set positions:             0.014     0.014   0.0% |
  P tci:                                     0.000     0.000   0.0% |
  ST tci:                                    0.842     0.842   0.0% |
  Scalapack redistribute:                    0.042     0.042   0.0% |
  blocked summation:                         1.380     1.380   0.0% |
  mktci:                                     0.342     0.342   0.0% |
PWDescriptor:                                1.056     1.056   0.0% |
Redistribute:                                0.033     0.033   0.0% |
SCF-cycle:                               26935.061   688.654   2.4% ||
 Davidson:                               20570.629  5580.817  19.6% |-------|
  Apply H:                                1942.610  1915.308   6.7% |--|
   HMM T:                                   27.302    27.302   0.1% |
  Subspace diag:                          3407.719     0.097   0.0% |
   calc_h_matrix:                         2440.472   547.119   1.9% ||
    Apply H:                              1893.353  1865.004   6.6% |--|
     HMM T:                                 28.349    28.349   0.1% |
   diagonalize:                             84.429    84.429   0.3% |
   rotate_psi:                             882.722   882.722   3.1% ||
  calc. matrices:                         7353.963  3556.506  12.5% |----|
   Apply H:                               3797.457  3743.252  13.2% |----|
    HMM T:                                  54.205    54.205   0.2% |
  diagonalize:                             604.312   604.312   2.1% ||
  rotate_psi:                             1681.207  1681.207   5.9% |-|
 Density:                                 1941.936     0.022   0.0% |
  Atomic density matrices:                   8.172     8.172   0.0% |
  Mix:                                     927.449   927.449   3.3% ||
  Multipole moments:                         0.616     0.616   0.0% |
  Pseudo density:                         1005.677  1005.658   3.5% ||
   Symmetrize density:                       0.019     0.019   0.0% |
 Hamiltonian:                             3594.005     8.181   0.0% |
  Atomic:                                  114.192    30.280   0.1% |
   XC Correction:                           83.912    83.912   0.3% |
  Calculate atomic Hamiltonians:           781.110   781.110   2.7% ||
  Communicate:                             117.641   117.641   0.4% |
  Poisson:                                   2.337     2.337   0.0% |
  XC 3D grid:                             2570.544   387.503   1.4% ||
   VdW-DF integral:                       2183.041    63.359   0.2% |
    Convolution:                           135.896   135.896   0.5% |
    FFT:                                    79.110    79.110   0.3% |
    gather:                                757.942   757.942   2.7% ||
    hmm1:                                   38.544    38.544   0.1% |
    hmm2:                                  109.386   109.386   0.4% |
    iFFT:                                   83.008    83.008   0.3% |
    potential:                             915.791     8.190   0.0% |
     collect:                              118.821   118.821   0.4% |
     p1:                                   498.109   498.109   1.8% ||
     p2:                                   153.697   153.697   0.5% |
     sum:                                  136.975   136.975   0.5% |
    splines:                                 0.005     0.005   0.0% |
 Orthonormalize:                           139.837     0.011   0.0% |
  calc_s_matrix:                            17.462    17.462   0.1% |
  inverse-cholesky:                          3.553     3.553   0.0% |
  projections:                              89.313    89.313   0.3% |
  rotate_psi_s:                             29.498    29.498   0.1% |
Set symmetry:                                0.002     0.002   0.0% |
Other:                                     235.865   235.865   0.8% |
-------------------------------------------------------------------
Total:                                             28441.902 100.0%

Memory usage: 1.36 GiB
Date: Mon Oct 17 22:34:51 2022
