
  ___ ___ ___ _ _ _  
 |   |   |_  | | | | 
 | | | | | . | | | | 
 |__ |  _|___|_____|  19.8.1
 |___|_|             

User:   thorkong@node056.cluster
Date:   Sat Jun  4 22:18:11 2022
Arch:   x86_64
Pid:    11877
Python: 3.6.12
gpaw:   /software/kemi/gpaw/19.8.1/gpaw
_gpaw:  /software/kemi/gpaw/19.8.1/bin/gpaw-python
ase:    /software/kemi/ase/3.19.0/ase (version 3.19.0)
numpy:  /opt/rh/rh-python36/root/usr/lib64/python3.6/site-packages/numpy (version 1.13.1)
scipy:  /opt/rh/rh-python36/root/usr/lib64/python3.6/site-packages/scipy (version 0.19.1)
libxc:  4.2.3
units:  Angstrom and eV
cores:  32

Input parameters:
  basis: dzp
  kpts: [4 4 1]
  mode: {ecut: 600.0,
         gammacentered: False,
         name: pw}
  xc: BEEF-vdW

System changes: positions, numbers, cell, pbc, initial_charges, initial_magmoms 

Initialize ...

Cu-setup:
  name: Copper
  id: f1c4d45d90492f1bbfdcb091e8418fdf
  Z: 29
  valence: 11
  core: 18
  charge: 0.0
  file: /software/kemi/gpaw-setups/0.9.20000/Cu.PBE.gz
  compensation charges: gauss, rc=0.33, lmax=2
  cutoffs: 2.06(filt), 2.43(core),
  valence states:
                energy  radius
    4s(1.00)    -4.609   1.164
    4p(0.00)    -0.698   1.164
    3d(10.00)    -5.039   1.058
    *s          22.603   1.164
    *p          26.513   1.164
    *d          22.172   1.058

  LCAO basis set for Cu:
    Name: dzp
    File: /software/kemi/gpaw-setups/0.9.20000/Cu.dzp.basis.gz
    Number of radial functions: 5
    Number of spherical harmonics: 15
      l=0, rc=8.9688 Bohr: 4s-sz confined orbital
      l=2, rc=5.1719 Bohr: 3d-sz confined orbital
      l=0, rc=5.3281 Bohr: 4s-dz split-valence wave
      l=2, rc=3.1406 Bohr: 3d-dz split-valence wave
      l=1, rc=8.9688 Bohr: p-type Gaussian polarization

Reference energy: -4322059.376747

Spin-paired calculation

Occupation numbers:
  Fermi-Dirac: width=0.1000 eV

Convergence criteria:
  Maximum total energy change: 0.0005 eV / electron
  Maximum integral of absolute density change: 0.0001 electrons
  Maximum integral of absolute eigenstate change: 4e-08 eV^2
  Maximum number of iterations: 333

Symmetries present (total): 2

  ( 1  0  0)  ( 1  0  0)
  ( 0  1  0)  ( 0 -1  0)
  ( 0  0  1)  ( 0  0  1)

16 k-points: 4 x 4 x 1 Monkhorst-Pack grid
4 k-points in the irreducible part of the Brillouin zone
       k-points in crystal coordinates                weights
   0:     0.12500000    0.12500000    0.00000000          4/16
   1:     0.12500000    0.37500000    0.00000000          4/16
   2:     0.37500000    0.12500000    0.00000000          4/16
   3:     0.37500000    0.37500000    0.00000000          4/16

Wave functions: Plane wave expansion
  Cutoff energy: 600.000 eV
  Number of coefficients (min, max): 96699, 96750
  Pulay-stress correction: 0.000000 eV/Ang^3 (de/decut=0.000000)
  Using Numpy's FFT
  ScaLapack parameters: grid=1x1, blocksize=None
  Wavefunction extrapolation:
    Improved wavefunction reuse through dual PAW basis 

Eigensolver
   Davidson(niter=2, smin=None, normalize=True) 

Densities:
  Coarse grid: 70*42*192 grid
  Fine grid: 140*84*384 grid
  Total Charge: 0.000000 

Density mixing:
  Method: separate
  Backend: pulay
  Linear mixing parameter: 0.05
  Mixing with 5 old densities
  Damping of long wave oscillations: 50 

Hamiltonian:
  XC and Coulomb potentials evaluated on a 140*84*384 grid
  Using the BEEF-vdW Exchange-Correlation functional
 

XC parameters: BEEF-vdW with 2 nearest neighbor stencil

Memory estimate:
  Process memory now: 295.98 MiB
  Calculator: 2020.36 MiB
    Density: 32.17 MiB
      Arrays: 14.00 MiB
      Localized functions: 12.79 MiB
      Mixer: 5.38 MiB
    Hamiltonian: 9.41 MiB
      Arrays: 9.15 MiB
      XC: 0.00 MiB
      Poisson: 0.00 MiB
      vbar: 0.26 MiB
    Wavefunctions: 1978.78 MiB
      Arrays psit_nG: 941.87 MiB
      Eigensolver: 1011.38 MiB
      Projections: 2.10 MiB
      Projectors: 1.38 MiB
      PW-descriptor: 22.04 MiB

Total number of cores used: 32
Parallelization over k-points: 4
Domain decomposition: 2 x 1 x 4

Number of atoms: 96
Number of atomic orbitals: 1440
Number of bands in calculation: 638
Bands to converge: occupied states only
Number of valence electrons: 1056

... initialized

Initializing position-dependent things.

Density initialized from atomic densities
Creating initial wave functions:
  638 bands from LCAO basis set

      .----------------------------.  
     /|                            |  
    / |                            |  
   /  |                            |  
  /   |                            |  
 *    |                            |  
 |    |                            |  
 |    |                            |  
 |    |                            |  
 |    |                            |  
 |    |                            |  
 |    |                            |  
 |    |                            |  
 |    |                            |  
 |    |       Cu             Cu    |  
 |    | Cu       Cu    Cu       Cu |  
 |    |     Cu   Cu       Cu   Cu  |  
 |    Cu   Cu       Cu    Cu       |  
 |    Cu   Cu  Cu   Cu    Cu Cu    |  
 |   Cu  Cu   Cu    Cu Cu    Cu    |  
 |    |  Cu   Cu       Cu    Cu    |  
 | Cu | Cu    Cu  Cu   Cu    Cu    |  
 | Cu | Cu  Cu   Cu    Cu Cu       |  
 |    |     Cu   Cu       Cu    Cu |  
 |    Cu   Cu    Cu Cu    Cu   Cu  |  
 |    Cu   Cu  Cu   Cu    Cu Cu    |  
 |   CCu      Cu    Cu       Cu    |  
 |    |  Cu   Cu       Cu    Cu    |  
 | Cu | Cu    Cu  Cu   Cu    Cu    |  
 | Cu | Cu  Cu   Cu    Cu Cu       |  
 |    |     Cu   Cu       Cu    Cu |  
 |    Cu   Cu       Cu    Cu       |  
 |    Cu       Cu   Cu       Cu    |  
 |    |                            |  
 |    |  Cu            Cu          |  
 |    |                            |  
 |    |                            |  
 |    |                            |  
 |    |                            |  
 |    |                            |  
 |    |                            |  
 |    .----------------------------.  
 |   /                            /   
 |  /                            /    
 | /                            /     
 |/                            /      
 *----------------------------*       

Positions:
   0 Cu     3.185642    0.000000   10.000000    ( 0.0000,  0.0000,  0.0000)
   1 Cu     1.430103    1.850500   10.585179    ( 0.0000,  0.0000,  0.0000)
   2 Cu     7.281898    1.850500   10.585179    ( 0.0000,  0.0000,  0.0000)
   3 Cu     9.037436    0.000000   10.000000    ( 0.0000,  0.0000,  0.0000)
   4 Cu    11.378154    0.000000   11.170359    ( 0.0000,  0.0000,  0.0000)
   5 Cu     9.622616    1.850500   11.755538    ( 0.0000,  0.0000,  0.0000)
   6 Cu     3.770821    1.850500   11.755538    ( 0.0000,  0.0000,  0.0000)
   7 Cu     5.526359    0.000000   11.170359    ( 0.0000,  0.0000,  0.0000)
   8 Cu     7.867077    0.000000   12.340718    ( 0.0000,  0.0000,  0.0000)
   9 Cu     6.111539    1.850500   12.925897    ( 0.0000,  0.0000,  0.0000)
  10 Cu     0.259744    1.850500   12.925897    ( 0.0000,  0.0000,  0.0000)
  11 Cu     2.015283    0.000000   12.340718    ( 0.0000,  0.0000,  0.0000)
  12 Cu     4.356000    0.000000   13.511077    ( 0.0000,  0.0000,  0.0000)
  13 Cu     2.600462    1.850500   14.096256    ( 0.0000,  0.0000,  0.0000)
  14 Cu     8.452257    1.850500   14.096256    ( 0.0000,  0.0000,  0.0000)
  15 Cu    10.207795    0.000000   13.511077    ( 0.0000,  0.0000,  0.0000)
  16 Cu     0.844924    0.000000   14.681436    ( 0.0000,  0.0000,  0.0000)
  17 Cu    10.792975    1.850500   15.266615    ( 0.0000,  0.0000,  0.0000)
  18 Cu     4.941180    1.850500   15.266615    ( 0.0000,  0.0000,  0.0000)
  19 Cu     6.696718    0.000000   14.681436    ( 0.0000,  0.0000,  0.0000)
  20 Cu     9.037436    0.000000   15.851795    ( 0.0000,  0.0000,  0.0000)
  21 Cu     7.281898    1.850500   16.436974    ( 0.0000,  0.0000,  0.0000)
  22 Cu     1.430103    1.850500   16.436974    ( 0.0000,  0.0000,  0.0000)
  23 Cu     3.185642    0.000000   15.851795    ( 0.0000,  0.0000,  0.0000)
  24 Cu     5.526359    0.000000   17.022154    ( 0.0000,  0.0000,  0.0000)
  25 Cu     3.770821    1.850500   17.607333    ( 0.0000,  0.0000,  0.0000)
  26 Cu     9.622616    1.850500   17.607333    ( 0.0000,  0.0000,  0.0000)
  27 Cu    11.378154    0.000000   17.022154    ( 0.0000,  0.0000,  0.0000)
  28 Cu     2.015283    0.000000   18.192513    ( 0.0000,  0.0000,  0.0000)
  29 Cu     0.259744    1.850500   18.777692    ( 0.0000,  0.0000,  0.0000)
  30 Cu     6.111539    1.850500   18.777692    ( 0.0000,  0.0000,  0.0000)
  31 Cu     7.867077    0.000000   18.192513    ( 0.0000,  0.0000,  0.0000)
  32 Cu    10.207795    0.000000   19.362872    ( 0.0000,  0.0000,  0.0000)
  33 Cu     8.452257    1.850500   19.948051    ( 0.0000,  0.0000,  0.0000)
  34 Cu     2.600462    1.850500   19.948051    ( 0.0000,  0.0000,  0.0000)
  35 Cu     4.356000    0.000000   19.362872    ( 0.0000,  0.0000,  0.0000)
  36 Cu     6.696718    0.000000   20.533231    ( 0.0000,  0.0000,  0.0000)
  37 Cu     4.941180    1.850500   21.118410    ( 0.0000,  0.0000,  0.0000)
  38 Cu    10.792975    1.850500   21.118410    ( 0.0000,  0.0000,  0.0000)
  39 Cu     0.844924    0.000000   20.533231    ( 0.0000,  0.0000,  0.0000)
  40 Cu     3.185642    0.000000   21.703590    ( 0.0000,  0.0000,  0.0000)
  41 Cu     1.430103    1.850500   22.288769    ( 0.0000,  0.0000,  0.0000)
  42 Cu     7.281898    1.850500   22.288769    ( 0.0000,  0.0000,  0.0000)
  43 Cu     9.037436    0.000000   21.703590    ( 0.0000,  0.0000,  0.0000)
  44 Cu    11.378154    0.000000   22.873949    ( 0.0000,  0.0000,  0.0000)
  45 Cu     9.622616    1.850500   23.459128    ( 0.0000,  0.0000,  0.0000)
  46 Cu     3.770821    1.850500   23.459128    ( 0.0000,  0.0000,  0.0000)
  47 Cu     5.526359    0.000000   22.873949    ( 0.0000,  0.0000,  0.0000)
  48 Cu     3.185642    3.701000   10.000000    ( 0.0000,  0.0000,  0.0000)
  49 Cu     1.430103    5.551500   10.585179    ( 0.0000,  0.0000,  0.0000)
  50 Cu     7.281898    5.551500   10.585179    ( 0.0000,  0.0000,  0.0000)
  51 Cu     9.037436    3.701000   10.000000    ( 0.0000,  0.0000,  0.0000)
  52 Cu    11.378154    3.701000   11.170359    ( 0.0000,  0.0000,  0.0000)
  53 Cu     9.622616    5.551500   11.755538    ( 0.0000,  0.0000,  0.0000)
  54 Cu     3.770821    5.551500   11.755538    ( 0.0000,  0.0000,  0.0000)
  55 Cu     5.526359    3.701000   11.170359    ( 0.0000,  0.0000,  0.0000)
  56 Cu     7.867077    3.701000   12.340718    ( 0.0000,  0.0000,  0.0000)
  57 Cu     6.111539    5.551500   12.925897    ( 0.0000,  0.0000,  0.0000)
  58 Cu     0.259744    5.551500   12.925897    ( 0.0000,  0.0000,  0.0000)
  59 Cu     2.015283    3.701000   12.340718    ( 0.0000,  0.0000,  0.0000)
  60 Cu     4.356000    3.701000   13.511077    ( 0.0000,  0.0000,  0.0000)
  61 Cu     2.600462    5.551500   14.096256    ( 0.0000,  0.0000,  0.0000)
  62 Cu     8.452257    5.551500   14.096256    ( 0.0000,  0.0000,  0.0000)
  63 Cu    10.207795    3.701000   13.511077    ( 0.0000,  0.0000,  0.0000)
  64 Cu     0.844924    3.701000   14.681436    ( 0.0000,  0.0000,  0.0000)
  65 Cu    10.792975    5.551500   15.266615    ( 0.0000,  0.0000,  0.0000)
  66 Cu     4.941180    5.551500   15.266615    ( 0.0000,  0.0000,  0.0000)
  67 Cu     6.696718    3.701000   14.681436    ( 0.0000,  0.0000,  0.0000)
  68 Cu     9.037436    3.701000   15.851795    ( 0.0000,  0.0000,  0.0000)
  69 Cu     7.281898    5.551500   16.436974    ( 0.0000,  0.0000,  0.0000)
  70 Cu     1.430103    5.551500   16.436974    ( 0.0000,  0.0000,  0.0000)
  71 Cu     3.185642    3.701000   15.851795    ( 0.0000,  0.0000,  0.0000)
  72 Cu     5.526359    3.701000   17.022154    ( 0.0000,  0.0000,  0.0000)
  73 Cu     3.770821    5.551500   17.607333    ( 0.0000,  0.0000,  0.0000)
  74 Cu     9.622616    5.551500   17.607333    ( 0.0000,  0.0000,  0.0000)
  75 Cu    11.378154    3.701000   17.022154    ( 0.0000,  0.0000,  0.0000)
  76 Cu     2.015283    3.701000   18.192513    ( 0.0000,  0.0000,  0.0000)
  77 Cu     0.259744    5.551500   18.777692    ( 0.0000,  0.0000,  0.0000)
  78 Cu     6.111539    5.551500   18.777692    ( 0.0000,  0.0000,  0.0000)
  79 Cu     7.867077    3.701000   18.192513    ( 0.0000,  0.0000,  0.0000)
  80 Cu    10.207795    3.701000   19.362872    ( 0.0000,  0.0000,  0.0000)
  81 Cu     8.452257    5.551500   19.948051    ( 0.0000,  0.0000,  0.0000)
  82 Cu     2.600462    5.551500   19.948051    ( 0.0000,  0.0000,  0.0000)
  83 Cu     4.356000    3.701000   19.362872    ( 0.0000,  0.0000,  0.0000)
  84 Cu     6.696718    3.701000   20.533231    ( 0.0000,  0.0000,  0.0000)
  85 Cu     4.941180    5.551500   21.118410    ( 0.0000,  0.0000,  0.0000)
  86 Cu    10.792975    5.551500   21.118410    ( 0.0000,  0.0000,  0.0000)
  87 Cu     0.844924    3.701000   20.533231    ( 0.0000,  0.0000,  0.0000)
  88 Cu     3.185642    3.701000   21.703590    ( 0.0000,  0.0000,  0.0000)
  89 Cu     1.430103    5.551500   22.288769    ( 0.0000,  0.0000,  0.0000)
  90 Cu     7.281898    5.551500   22.288769    ( 0.0000,  0.0000,  0.0000)
  91 Cu     9.037436    3.701000   21.703590    ( 0.0000,  0.0000,  0.0000)
  92 Cu    11.378154    3.701000   22.873949    ( 0.0000,  0.0000,  0.0000)
  93 Cu     9.622616    5.551500   23.459128    ( 0.0000,  0.0000,  0.0000)
  94 Cu     3.770821    5.551500   23.459128    ( 0.0000,  0.0000,  0.0000)
  95 Cu     5.526359    3.701000   22.873949    ( 0.0000,  0.0000,  0.0000)

Unit cell:
           periodic     x           y           z      points  spacing
  1. axis:    yes   11.703590    0.000000    0.000000    70     0.1672
  2. axis:    yes    0.000000    7.402000    0.000000    42     0.1762
  3. axis:    no     0.000000    0.000000   33.459128   192     0.1743

  Lengths:  11.703590   7.402000  33.459128
  Angles:   90.000000  90.000000  90.000000

Effective grid spacing dv^(1/3) = 0.1725

                     log10-error:    total        iterations:
           time      wfs    density  energy       fermi  poisson
iter:   1  22:21:50  +0.12   +inf  -7315.859601    3             
iter:   2  22:23:33  -1.63  -1.21  -7296.654195    35            
iter:   3  22:25:17  -1.02  -1.29  -7279.506695    4             
iter:   4  22:27:01  -1.47  -1.49  -7269.094752    36            
iter:   5  22:28:44  -2.18  -1.65  -7270.018196    3             
iter:   6  22:30:27  -1.75  -1.72  -7270.012311    34            
iter:   7  22:32:10  -2.48  -1.93  -7269.377752    3             
iter:   8  22:33:55  -3.03  -2.00  -7267.043310    3             
iter:   9  22:35:39  -2.50  -2.12  -7266.343321    4             
iter:  10  22:37:23  -3.77  -2.34  -7266.210741    3             
iter:  11  22:39:06  -2.83  -2.48  -7265.928210    4             
iter:  12  22:40:50  -4.12  -2.98  -7265.908444    3             
iter:  13  22:42:33  -4.97  -3.16  -7265.905008    2             
iter:  14  22:44:17  -4.17  -3.17  -7265.915754    3             
iter:  15  22:46:00  -4.40  -3.11  -7265.902455    3             
iter:  16  22:47:44  -6.01  -3.37  -7265.901179    2             
iter:  17  22:49:28  -5.33  -3.39  -7265.896887    3             
iter:  18  22:51:12  -4.90  -3.48  -7265.893589    3             
iter:  19  22:52:55  -5.23  -3.58  -7265.892057    3             
iter:  20  22:54:39  -6.47  -3.84  -7265.892092    2             
iter:  21  22:56:22  -6.78  -3.85  -7265.891867    2             
iter:  22  22:58:06  -6.20  -3.93  -7265.891815    2             
iter:  23  22:59:50  -6.69  -4.06  -7265.891694    2             
iter:  24  23:01:33  -7.08  -4.10  -7265.891684    2             
iter:  25  23:03:17  -7.28  -4.14  -7265.891691    2             
iter:  26  23:05:00  -6.24  -4.18  -7265.891881    2             
iter:  27  23:06:43  -7.39  -4.45  -7265.891840    2             
iter:  28  23:08:27  -7.27  -4.68  -7265.891862    2             
iter:  29  23:10:11  -7.99  -4.59  -7265.891824    2             

Converged after 29 iterations.

Dipole moment: (20.433264, 0.000000, -0.000302) |e|*Ang

Energy contributions relative to reference atoms: (reference = -4322059.376747)

Kinetic:       +656.108845
Potential:     -739.868635
External:        +0.000000
XC:            -7180.187198
Entropy (-ST):   -0.950886
Local:           -1.469393
--------------------------
Free energy:   -7266.367267
Extrapolated:  -7265.891824

Fermi level: 0.37208

Showing only first 2 kpts
 Kpt  Band  Eigenvalues  Occupancy
  0   526      0.10766    0.46683
  0   527      0.19734    0.42581
  0   528      0.20955    0.41776
  0   529      0.21581    0.41337

  1   526      0.47827    0.12848
  1   527      0.49723    0.11122
  1   528      0.51339    0.09787
  1   529      0.54419    0.07586


No gap

Forces in eV/Ang:
  0 Cu   -0.08790    0.00000    0.40837
  1 Cu    0.03201   -0.00000    0.12298
  2 Cu    0.03201    0.00000    0.12298
  3 Cu   -0.08790    0.00000    0.40837
  4 Cu    0.00607    0.00000   -0.06362
  5 Cu    0.09611    0.00000   -0.30684
  6 Cu    0.09611    0.00000   -0.30684
  7 Cu    0.00607    0.00000   -0.06362
  8 Cu   -0.03318    0.00000   -0.19045
  9 Cu   -0.03766   -0.00000   -0.06444
 10 Cu   -0.03766    0.00000   -0.06444
 11 Cu   -0.03318    0.00000   -0.19045
 12 Cu   -0.02003    0.00000    0.04157
 13 Cu    0.00203   -0.00000    0.03430
 14 Cu    0.00203    0.00000    0.03430
 15 Cu   -0.02003    0.00000    0.04157
 16 Cu    0.01551    0.00000   -0.01328
 17 Cu    0.02217    0.00000   -0.02606
 18 Cu    0.02217    0.00000   -0.02606
 19 Cu    0.01551    0.00000   -0.01328
 20 Cu   -0.00342    0.00000    0.01796
 21 Cu    0.00406   -0.00000    0.00589
 22 Cu    0.00406   -0.00000    0.00589
 23 Cu   -0.00342    0.00000    0.01796
 24 Cu   -0.00367    0.00000   -0.00559
 25 Cu    0.00388   -0.00000   -0.01779
 26 Cu    0.00388   -0.00000   -0.01779
 27 Cu   -0.00367    0.00000   -0.00559
 28 Cu   -0.02177    0.00000    0.02594
 29 Cu   -0.01512    0.00000    0.01341
 30 Cu   -0.01512    0.00000    0.01341
 31 Cu   -0.02177    0.00000    0.02594
 32 Cu   -0.00155    0.00000   -0.03436
 33 Cu    0.02051   -0.00000   -0.04178
 34 Cu    0.02051    0.00000   -0.04178
 35 Cu   -0.00155    0.00000   -0.03436
 36 Cu    0.03817    0.00000    0.06438
 37 Cu    0.03365   -0.00000    0.19077
 38 Cu    0.03365   -0.00000    0.19077
 39 Cu    0.03817    0.00000    0.06438
 40 Cu   -0.09555    0.00000    0.30716
 41 Cu   -0.00553   -0.00000    0.06398
 42 Cu   -0.00553    0.00000    0.06398
 43 Cu   -0.09555    0.00000    0.30716
 44 Cu   -0.03133    0.00000   -0.12257
 45 Cu    0.08872   -0.00000   -0.40804
 46 Cu    0.08872    0.00000   -0.40804
 47 Cu   -0.03133    0.00000   -0.12257
 48 Cu   -0.08790    0.00000    0.40837
 49 Cu    0.03201    0.00000    0.12298
 50 Cu    0.03201   -0.00000    0.12298
 51 Cu   -0.08790    0.00000    0.40837
 52 Cu    0.00607    0.00000   -0.06362
 53 Cu    0.09611   -0.00000   -0.30684
 54 Cu    0.09611   -0.00000   -0.30684
 55 Cu    0.00607    0.00000   -0.06362
 56 Cu   -0.03318    0.00000   -0.19045
 57 Cu   -0.03766    0.00000   -0.06444
 58 Cu   -0.03766   -0.00000   -0.06444
 59 Cu   -0.03318    0.00000   -0.19045
 60 Cu   -0.02003    0.00000    0.04157
 61 Cu    0.00203    0.00000    0.03430
 62 Cu    0.00203   -0.00000    0.03430
 63 Cu   -0.02003    0.00000    0.04157
 64 Cu    0.01551    0.00000   -0.01328
 65 Cu    0.02217   -0.00000   -0.02606
 66 Cu    0.02217   -0.00000   -0.02606
 67 Cu    0.01551    0.00000   -0.01328
 68 Cu   -0.00342    0.00000    0.01796
 69 Cu    0.00406    0.00000    0.00589
 70 Cu    0.00406    0.00000    0.00589
 71 Cu   -0.00342    0.00000    0.01796
 72 Cu   -0.00367    0.00000   -0.00559
 73 Cu    0.00388    0.00000   -0.01779
 74 Cu    0.00388    0.00000   -0.01779
 75 Cu   -0.00367    0.00000   -0.00559
 76 Cu   -0.02177    0.00000    0.02594
 77 Cu   -0.01512   -0.00000    0.01341
 78 Cu   -0.01512   -0.00000    0.01341
 79 Cu   -0.02177    0.00000    0.02594
 80 Cu   -0.00155    0.00000   -0.03436
 81 Cu    0.02051    0.00000   -0.04178
 82 Cu    0.02051   -0.00000   -0.04178
 83 Cu   -0.00155    0.00000   -0.03436
 84 Cu    0.03817    0.00000    0.06438
 85 Cu    0.03365    0.00000    0.19077
 86 Cu    0.03365    0.00000    0.19077
 87 Cu    0.03817    0.00000    0.06438
 88 Cu   -0.09555    0.00000    0.30716
 89 Cu   -0.00553    0.00000    0.06398
 90 Cu   -0.00553   -0.00000    0.06398
 91 Cu   -0.09555    0.00000    0.30716
 92 Cu   -0.03133    0.00000   -0.12257
 93 Cu    0.08872    0.00000   -0.40804
 94 Cu    0.08872   -0.00000   -0.40804
 95 Cu   -0.03133    0.00000   -0.12257

System changes: positions 

Initializing position-dependent things.

Density initialized from wave functions
      .----------------------------.  
     /|                            |  
    / |                            |  
   /  |                            |  
  /   |                            |  
 *    |                            |  
 |    |                            |  
 |    |                            |  
 |    |                            |  
 |    |                            |  
 |    |                            |  
 |    |                            |  
 |    |                            |  
 |    |                            |  
 |    |       Cu             Cu    |  
 |    | Cu       Cu    Cu       Cu |  
 |    |     Cu   Cu       Cu    Cu |  
 |    Cu   Cu       Cu    Cu       |  
 |    Cu   Cu  Cu   Cu    Cu Cu    |  
 |   Cu  Cu    Cu   Cu Cu    Cu    |  
 |    |  Cu   Cu       Cu    Cu    |  
 | Cu | Cu    Cu  Cu   Cu    Cu    |  
 | Cu | Cu  Cu   Cu    Cu Cu       |  
 |    |     Cu   Cu       Cu    Cu |  
 |    Cu   Cu    Cu Cu    Cu   Cu  |  
 |    Cu   Cu  Cu   Cu    Cu Cu    |  
 |   CCu      Cu    Cu       Cu    |  
 |    |  Cu   Cu       Cu    Cu    |  
 | Cu | Cu    Cu  Cu   Cu    Cu    |  
 | Cu | Cu  Cu   Cu    Cu Cu       |  
 |    |     Cu   Cu       Cu    Cu |  
 |    Cu   Cu       Cu    Cu       |  
 |    Cu       Cu   Cu       Cu    |  
 |    |                            |  
 |    |  Cu            Cu          |  
 |    |                            |  
 |    |                            |  
 |    |                            |  
 |    |                            |  
 |    |                            |  
 |    |                            |  
 |    .----------------------------.  
 |   /                            /   
 |  /                            /    
 | /                            /     
 |/                            /      
 *----------------------------*       

Positions:
   0 Cu     3.176851    0.000000   10.040837    ( 0.0000,  0.0000,  0.0000)
   1 Cu     1.433304    1.850500   10.597478    ( 0.0000,  0.0000,  0.0000)
   2 Cu     7.285099    1.850500   10.597478    ( 0.0000,  0.0000,  0.0000)
   3 Cu     9.028646    0.000000   10.040837    ( 0.0000,  0.0000,  0.0000)
   4 Cu    11.378761    0.000000   11.163997    ( 0.0000,  0.0000,  0.0000)
   5 Cu     9.632227    1.850500   11.724855    ( 0.0000,  0.0000,  0.0000)
   6 Cu     3.780432    1.850500   11.724855    ( 0.0000,  0.0000,  0.0000)
   7 Cu     5.526967    0.000000   11.163997    ( 0.0000,  0.0000,  0.0000)
   8 Cu     7.863760    0.000000   12.321673    ( 0.0000,  0.0000,  0.0000)
   9 Cu     6.107772    1.850500   12.919453    ( 0.0000,  0.0000,  0.0000)
  10 Cu     0.255978    1.850500   12.919453    ( 0.0000,  0.0000,  0.0000)
  11 Cu     2.011965    0.000000   12.321673    ( 0.0000,  0.0000,  0.0000)
  12 Cu     4.353997    0.000000   13.515234    ( 0.0000,  0.0000,  0.0000)
  13 Cu     2.600665    1.850500   14.099686    ( 0.0000,  0.0000,  0.0000)
  14 Cu     8.452460    1.850500   14.099686    ( 0.0000,  0.0000,  0.0000)
  15 Cu    10.205792    0.000000   13.515234    ( 0.0000,  0.0000,  0.0000)
  16 Cu     0.846475    0.000000   14.680108    ( 0.0000,  0.0000,  0.0000)
  17 Cu    10.795192    1.850500   15.264009    ( 0.0000,  0.0000,  0.0000)
  18 Cu     4.943397    1.850500   15.264009    ( 0.0000,  0.0000,  0.0000)
  19 Cu     6.698270    0.000000   14.680108    ( 0.0000,  0.0000,  0.0000)
  20 Cu     9.037095    0.000000   15.853591    ( 0.0000,  0.0000,  0.0000)
  21 Cu     7.282304    1.850500   16.437563    ( 0.0000,  0.0000,  0.0000)
  22 Cu     1.430509    1.850500   16.437563    ( 0.0000,  0.0000,  0.0000)
  23 Cu     3.185300    0.000000   15.853591    ( 0.0000,  0.0000,  0.0000)
  24 Cu     5.525992    0.000000   17.021594    ( 0.0000,  0.0000,  0.0000)
  25 Cu     3.771209    1.850500   17.605554    ( 0.0000,  0.0000,  0.0000)
  26 Cu     9.623004    1.850500   17.605554    ( 0.0000,  0.0000,  0.0000)
  27 Cu    11.377787    0.000000   17.021594    ( 0.0000,  0.0000,  0.0000)
  28 Cu     2.013105    0.000000   18.195107    ( 0.0000,  0.0000,  0.0000)
  29 Cu     0.258232    1.850500   18.779033    ( 0.0000,  0.0000,  0.0000)
  30 Cu     6.110027    1.850500   18.779033    ( 0.0000,  0.0000,  0.0000)
  31 Cu     7.864900    0.000000   18.195107    ( 0.0000,  0.0000,  0.0000)
  32 Cu    10.207641    0.000000   19.359436    ( 0.0000,  0.0000,  0.0000)
  33 Cu     8.454308    1.850500   19.943873    ( 0.0000,  0.0000,  0.0000)
  34 Cu     2.602513    1.850500   19.943873    ( 0.0000,  0.0000,  0.0000)
  35 Cu     4.355846    0.000000   19.359436    ( 0.0000,  0.0000,  0.0000)
  36 Cu     6.700536    0.000000   20.539668    ( 0.0000,  0.0000,  0.0000)
  37 Cu     4.944545    1.850500   21.137487    ( 0.0000,  0.0000,  0.0000)
  38 Cu    10.796339    1.850500   21.137487    ( 0.0000,  0.0000,  0.0000)
  39 Cu     0.848741    0.000000   20.539668    ( 0.0000,  0.0000,  0.0000)
  40 Cu     3.176087    0.000000   21.734306    ( 0.0000,  0.0000,  0.0000)
  41 Cu     1.429551    1.850500   22.295167    ( 0.0000,  0.0000,  0.0000)
  42 Cu     7.281345    1.850500   22.295167    ( 0.0000,  0.0000,  0.0000)
  43 Cu     9.027881    0.000000   21.734306    ( 0.0000,  0.0000,  0.0000)
  44 Cu    11.375021    0.000000   22.861692    ( 0.0000,  0.0000,  0.0000)
  45 Cu     9.631488    1.850500   23.418324    ( 0.0000,  0.0000,  0.0000)
  46 Cu     3.779693    1.850500   23.418324    ( 0.0000,  0.0000,  0.0000)
  47 Cu     5.523227    0.000000   22.861692    ( 0.0000,  0.0000,  0.0000)
  48 Cu     3.176851    3.701000   10.040837    ( 0.0000,  0.0000,  0.0000)
  49 Cu     1.433304    5.551500   10.597478    ( 0.0000,  0.0000,  0.0000)
  50 Cu     7.285099    5.551500   10.597478    ( 0.0000,  0.0000,  0.0000)
  51 Cu     9.028646    3.701000   10.040837    ( 0.0000,  0.0000,  0.0000)
  52 Cu    11.378761    3.701000   11.163997    ( 0.0000,  0.0000,  0.0000)
  53 Cu     9.632227    5.551500   11.724855    ( 0.0000,  0.0000,  0.0000)
  54 Cu     3.780432    5.551500   11.724855    ( 0.0000,  0.0000,  0.0000)
  55 Cu     5.526966    3.701000   11.163997    ( 0.0000,  0.0000,  0.0000)
  56 Cu     7.863760    3.701000   12.321673    ( 0.0000,  0.0000,  0.0000)
  57 Cu     6.107772    5.551500   12.919453    ( 0.0000,  0.0000,  0.0000)
  58 Cu     0.255978    5.551500   12.919453    ( 0.0000,  0.0000,  0.0000)
  59 Cu     2.011965    3.701000   12.321673    ( 0.0000,  0.0000,  0.0000)
  60 Cu     4.353997    3.701000   13.515234    ( 0.0000,  0.0000,  0.0000)
  61 Cu     2.600665    5.551500   14.099686    ( 0.0000,  0.0000,  0.0000)
  62 Cu     8.452460    5.551500   14.099686    ( 0.0000,  0.0000,  0.0000)
  63 Cu    10.205792    3.701000   13.515234    ( 0.0000,  0.0000,  0.0000)
  64 Cu     0.846475    3.701000   14.680108    ( 0.0000,  0.0000,  0.0000)
  65 Cu    10.795192    5.551500   15.264009    ( 0.0000,  0.0000,  0.0000)
  66 Cu     4.943397    5.551500   15.264009    ( 0.0000,  0.0000,  0.0000)
  67 Cu     6.698270    3.701000   14.680108    ( 0.0000,  0.0000,  0.0000)
  68 Cu     9.037095    3.701000   15.853591    ( 0.0000,  0.0000,  0.0000)
  69 Cu     7.282304    5.551500   16.437563    ( 0.0000,  0.0000,  0.0000)
  70 Cu     1.430509    5.551500   16.437563    ( 0.0000,  0.0000,  0.0000)
  71 Cu     3.185300    3.701000   15.853591    ( 0.0000,  0.0000,  0.0000)
  72 Cu     5.525992    3.701000   17.021595    ( 0.0000,  0.0000,  0.0000)
  73 Cu     3.771209    5.551500   17.605554    ( 0.0000,  0.0000,  0.0000)
  74 Cu     9.623004    5.551500   17.605554    ( 0.0000,  0.0000,  0.0000)
  75 Cu    11.377787    3.701000   17.021594    ( 0.0000,  0.0000,  0.0000)
  76 Cu     2.013105    3.701000   18.195107    ( 0.0000,  0.0000,  0.0000)
  77 Cu     0.258232    5.551500   18.779033    ( 0.0000,  0.0000,  0.0000)
  78 Cu     6.110027    5.551500   18.779033    ( 0.0000,  0.0000,  0.0000)
  79 Cu     7.864900    3.701000   18.195107    ( 0.0000,  0.0000,  0.0000)
  80 Cu    10.207641    3.701000   19.359436    ( 0.0000,  0.0000,  0.0000)
  81 Cu     8.454308    5.551500   19.943873    ( 0.0000,  0.0000,  0.0000)
  82 Cu     2.602513    5.551500   19.943873    ( 0.0000,  0.0000,  0.0000)
  83 Cu     4.355846    3.701000   19.359436    ( 0.0000,  0.0000,  0.0000)
  84 Cu     6.700536    3.701000   20.539668    ( 0.0000,  0.0000,  0.0000)
  85 Cu     4.944545    5.551500   21.137487    ( 0.0000,  0.0000,  0.0000)
  86 Cu    10.796339    5.551500   21.137487    ( 0.0000,  0.0000,  0.0000)
  87 Cu     0.848741    3.701000   20.539668    ( 0.0000,  0.0000,  0.0000)
  88 Cu     3.176087    3.701000   21.734306    ( 0.0000,  0.0000,  0.0000)
  89 Cu     1.429551    5.551500   22.295167    ( 0.0000,  0.0000,  0.0000)
  90 Cu     7.281345    5.551500   22.295167    ( 0.0000,  0.0000,  0.0000)
  91 Cu     9.027881    3.701000   21.734306    ( 0.0000,  0.0000,  0.0000)
  92 Cu    11.375021    3.701000   22.861692    ( 0.0000,  0.0000,  0.0000)
  93 Cu     9.631488    5.551500   23.418324    ( 0.0000,  0.0000,  0.0000)
  94 Cu     3.779693    5.551500   23.418324    ( 0.0000,  0.0000,  0.0000)
  95 Cu     5.523227    3.701000   22.861692    ( 0.0000,  0.0000,  0.0000)

Unit cell:
           periodic     x           y           z      points  spacing
  1. axis:    yes   11.703590    0.000000    0.000000    70     0.1672
  2. axis:    yes    0.000000    7.402000    0.000000    42     0.1762
  3. axis:    no     0.000000    0.000000   33.459128   192     0.1743

  Lengths:  11.703590   7.402000  33.459128
  Angles:   90.000000  90.000000  90.000000

Effective grid spacing dv^(1/3) = 0.1725

                     log10-error:    total        iterations:
           time      wfs    density  energy       fermi  poisson
iter:   1  23:12:25  -1.90   +inf  -7272.565168    36            
iter:   2  23:14:09  -2.01  -1.93  -7266.836153    35            
iter:   3  23:15:53  -3.53  -2.49  -7266.148219    4             
iter:   4  23:17:36  -4.08  -2.84  -7266.119261    3             
iter:   5  23:19:19  -3.83  -2.98  -7266.136063    3             
iter:   6  23:21:02  -4.70  -3.06  -7266.104782    2             
iter:   7  23:22:46  -4.69  -3.32  -7266.097616    3             
iter:   8  23:24:30  -5.57  -3.53  -7266.097035    2             
iter:   9  23:26:14  -4.67  -3.59  -7266.098685    3             
iter:  10  23:27:58  -5.87  -3.71  -7266.097244    2             
iter:  11  23:29:41  -5.38  -3.87  -7266.096053    2             
iter:  12  23:31:25  -5.36  -4.04  -7266.096496    2             
iter:  13  23:33:08  -6.27  -4.02  -7266.096212    2             
iter:  14  23:34:52  -6.38  -4.41  -7266.095887    2             
iter:  15  23:36:36  -6.27  -4.48  -7266.095724    2             
iter:  16  23:38:20  -7.05  -4.55  -7266.095737    2             
iter:  17  23:40:04  -7.58  -4.62  -7266.095749    2             

Converged after 17 iterations.

Dipole moment: (20.930505, 0.000000, -0.000545) |e|*Ang

Energy contributions relative to reference atoms: (reference = -4322059.376747)

Kinetic:       +657.971786
Potential:     -741.330351
External:        +0.000000
XC:            -7180.828177
Entropy (-ST):   -0.945877
Local:           -1.436068
--------------------------
Free energy:   -7266.568687
Extrapolated:  -7266.095749

Fermi level: 0.36740

Showing only first 2 kpts
 Kpt  Band  Eigenvalues  Occupancy
  0   526      0.09819    0.46828
  0   527      0.19547    0.42402
  0   528      0.20341    0.41876
  0   529      0.21366    0.41154

  1   526      0.47335    0.12870
  1   527      0.48917    0.11417
  1   528      0.49423    0.10977
  1   529      0.53181    0.08095


No gap

Forces in eV/Ang:
  0 Cu   -0.05933    0.00000    0.21487
  1 Cu   -0.02224    0.00000    0.06391
  2 Cu   -0.02224   -0.00000    0.06391
  3 Cu   -0.05933    0.00000    0.21487
  4 Cu    0.01838    0.00000   -0.05017
  5 Cu    0.09962   -0.00000   -0.11774
  6 Cu    0.09962   -0.00000   -0.11774
  7 Cu    0.01838    0.00000   -0.05017
  8 Cu   -0.01763    0.00000   -0.00776
  9 Cu   -0.03267   -0.00000   -0.02701
 10 Cu   -0.03267   -0.00000   -0.02701
 11 Cu   -0.01763    0.00000   -0.00776
 12 Cu   -0.03874    0.00000   -0.02464
 13 Cu    0.00342    0.00000   -0.04932
 14 Cu    0.00342    0.00000   -0.04932
 15 Cu   -0.03874    0.00000   -0.02464
 16 Cu    0.02125    0.00000   -0.04076
 17 Cu    0.01910   -0.00000   -0.01407
 18 Cu    0.01910    0.00000   -0.01407
 19 Cu    0.02125    0.00000   -0.04076
 20 Cu   -0.00213    0.00000    0.01823
 21 Cu   -0.00431   -0.00000    0.01328
 22 Cu   -0.00431    0.00000    0.01328
 23 Cu   -0.00213    0.00000    0.01823
 24 Cu    0.00479    0.00000   -0.01276
 25 Cu    0.00265    0.00000   -0.01755
 26 Cu    0.00265   -0.00000   -0.01755
 27 Cu    0.00480    0.00000   -0.01276
 28 Cu   -0.01851    0.00000    0.01494
 29 Cu   -0.02082    0.00000    0.04138
 30 Cu   -0.02082   -0.00000    0.04138
 31 Cu   -0.01851    0.00000    0.01494
 32 Cu   -0.00295    0.00000    0.04981
 33 Cu    0.03919    0.00000    0.02537
 34 Cu    0.03919   -0.00000    0.02537
 35 Cu   -0.00296    0.00000    0.04981
 36 Cu    0.03317    0.00000    0.02745
 37 Cu    0.01803   -0.00000    0.00775
 38 Cu    0.01803    0.00000    0.00775
 39 Cu    0.03316    0.00000    0.02745
 40 Cu   -0.09934    0.00000    0.11774
 41 Cu   -0.01797    0.00000    0.05042
 42 Cu   -0.01797   -0.00000    0.05042
 43 Cu   -0.09934    0.00000    0.11774
 44 Cu    0.02298    0.00000   -0.06359
 45 Cu    0.05986   -0.00000   -0.21425
 46 Cu    0.05986   -0.00000   -0.21425
 47 Cu    0.02298    0.00000   -0.06360
 48 Cu   -0.05933    0.00000    0.21487
 49 Cu   -0.02224   -0.00000    0.06391
 50 Cu   -0.02224    0.00000    0.06391
 51 Cu   -0.05933    0.00000    0.21487
 52 Cu    0.01838    0.00000   -0.05017
 53 Cu    0.09962    0.00000   -0.11774
 54 Cu    0.09962    0.00000   -0.11774
 55 Cu    0.01838    0.00000   -0.05017
 56 Cu   -0.01763    0.00000   -0.00776
 57 Cu   -0.03267    0.00000   -0.02701
 58 Cu   -0.03267    0.00000   -0.02701
 59 Cu   -0.01763    0.00000   -0.00776
 60 Cu   -0.03874    0.00000   -0.02464
 61 Cu    0.00342   -0.00000   -0.04932
 62 Cu    0.00342   -0.00000   -0.04932
 63 Cu   -0.03874    0.00000   -0.02464
 64 Cu    0.02125    0.00000   -0.04076
 65 Cu    0.01910    0.00000   -0.01407
 66 Cu    0.01910   -0.00000   -0.01407
 67 Cu    0.02125    0.00000   -0.04076
 68 Cu   -0.00213    0.00000    0.01823
 69 Cu   -0.00431    0.00000    0.01328
 70 Cu   -0.00431   -0.00000    0.01328
 71 Cu   -0.00213    0.00000    0.01823
 72 Cu    0.00480    0.00000   -0.01276
 73 Cu    0.00265   -0.00000   -0.01755
 74 Cu    0.00265    0.00000   -0.01755
 75 Cu    0.00480    0.00000   -0.01276
 76 Cu   -0.01851    0.00000    0.01494
 77 Cu   -0.02082   -0.00000    0.04138
 78 Cu   -0.02082    0.00000    0.04138
 79 Cu   -0.01851    0.00000    0.01494
 80 Cu   -0.00296    0.00000    0.04981
 81 Cu    0.03919   -0.00000    0.02537
 82 Cu    0.03919    0.00000    0.02537
 83 Cu   -0.00295    0.00000    0.04981
 84 Cu    0.03316    0.00000    0.02745
 85 Cu    0.01803    0.00000    0.00775
 86 Cu    0.01803   -0.00000    0.00775
 87 Cu    0.03317    0.00000    0.02745
 88 Cu   -0.09934    0.00000    0.11774
 89 Cu   -0.01797   -0.00000    0.05042
 90 Cu   -0.01797    0.00000    0.05042
 91 Cu   -0.09934    0.00000    0.11774
 92 Cu    0.02298    0.00000   -0.06360
 93 Cu    0.05986    0.00000   -0.21425
 94 Cu    0.05986    0.00000   -0.21425
 95 Cu    0.02298    0.00000   -0.06359

System changes: positions 

Initializing position-dependent things.

Density initialized from wave functions
      .----------------------------.  
     /|                            |  
    / |                            |  
   /  |                            |  
  /   |                            |  
 *    |                            |  
 |    |                            |  
 |    |                            |  
 |    |                            |  
 |    |                            |  
 |    |                            |  
 |    |                            |  
 |    |                            |  
 |    |                            |  
 |    |       Cu             Cu    |  
 |    | Cu             Cu          |  
 |    |     Cu   Cu       Cu    Cu |  
 |    Cu   Cu       Cu    Cu       |  
 |    Cu   Cu  Cu   Cu    Cu Cu    |  
 |   Cu  Cu    Cu   Cu Cu    Cu    |  
 |    |  Cu   Cu       Cu    Cu    |  
 | Cu | Cu    Cu  Cu   Cu    Cu    |  
 | Cu | Cu  Cu   Cu    Cu Cu       |  
 |    |     Cu   Cu       Cu    Cu |  
 |    Cu   Cu    Cu Cu    Cu    Cu |  
 |    Cu   Cu  Cu   Cu    Cu Cu    |  
 |   CCu       Cu   Cu       Cu    |  
 |    |  Cu   Cu       Cu    Cu    |  
 | Cu | Cu    Cu  Cu   Cu    Cu    |  
 | Cu | Cu  Cu   Cu    Cu Cu       |  
 |    |     Cu   Cu       Cu    Cu |  
 |    Cu   Cu       Cu    Cu       |  
 |    Cu       Cu   Cu       Cu    |  
 |    |                            |  
 |    |  Cu            Cu          |  
 |    |                            |  
 |    |                            |  
 |    |                            |  
 |    |                            |  
 |    |                            |  
 |    |                            |  
 |    .----------------------------.  
 |   /                            /   
 |  /                            /    
 | /                            /     
 |/                            /      
 *----------------------------*       

Positions:
   0 Cu     3.164331    0.000000   10.088057    ( 0.0000,  0.0000,  0.0000)
   1 Cu     1.429964    1.850500   10.611554    ( 0.0000,  0.0000,  0.0000)
   2 Cu     7.281759    1.850500   10.611554    ( 0.0000,  0.0000,  0.0000)
   3 Cu     9.016126    0.000000   10.088057    ( 0.0000,  0.0000,  0.0000)
   4 Cu    11.382200    0.000000   11.153633    ( 0.0000,  0.0000,  0.0000)
   5 Cu     9.652178    1.850500   11.697249    ( 0.0000,  0.0000,  0.0000)
   6 Cu     3.800384    1.850500   11.697249    ( 0.0000,  0.0000,  0.0000)
   7 Cu     5.530405    0.000000   11.153633    ( 0.0000,  0.0000,  0.0000)
   8 Cu     7.859892    0.000000   12.316308    ( 0.0000,  0.0000,  0.0000)
   9 Cu     6.101101    1.850500   12.913244    ( 0.0000,  0.0000,  0.0000)
  10 Cu     0.249306    1.850500   12.913244    ( 0.0000,  0.0000,  0.0000)
  11 Cu     2.008097    0.000000   12.316308    ( 0.0000,  0.0000,  0.0000)
  12 Cu     4.346601    0.000000   13.511660    ( 0.0000,  0.0000,  0.0000)
  13 Cu     2.601324    1.850500   14.091514    ( 0.0000,  0.0000,  0.0000)
  14 Cu     8.453119    1.850500   14.091514    ( 0.0000,  0.0000,  0.0000)
  15 Cu    10.198396    0.000000   13.511660    ( 0.0000,  0.0000,  0.0000)
  16 Cu     0.850627    0.000000   14.672487    ( 0.0000,  0.0000,  0.0000)
  17 Cu    10.799095    1.850500   15.260932    ( 0.0000,  0.0000,  0.0000)
  18 Cu     4.947300    1.850500   15.260932    ( 0.0000,  0.0000,  0.0000)
  19 Cu     6.702422    0.000000   14.672487    ( 0.0000,  0.0000,  0.0000)
  20 Cu     9.036640    0.000000   15.857249    ( 0.0000,  0.0000,  0.0000)
  21 Cu     7.281613    1.850500   16.440079    ( 0.0000,  0.0000,  0.0000)
  22 Cu     1.429818    1.850500   16.440079    ( 0.0000,  0.0000,  0.0000)
  23 Cu     3.184846    0.000000   15.857249    ( 0.0000,  0.0000,  0.0000)
  24 Cu     5.526780    0.000000   17.019179    ( 0.0000,  0.0000,  0.0000)
  25 Cu     3.771767    1.850500   17.602021    ( 0.0000,  0.0000,  0.0000)
  26 Cu     9.623562    1.850500   17.602021    ( 0.0000,  0.0000,  0.0000)
  27 Cu    11.378575    0.000000   17.019179    ( 0.0000,  0.0000,  0.0000)
  28 Cu     2.009316    0.000000   18.198340    ( 0.0000,  0.0000,  0.0000)
  29 Cu     0.254165    1.850500   18.786768    ( 0.0000,  0.0000,  0.0000)
  30 Cu     6.105960    1.850500   18.786768    ( 0.0000,  0.0000,  0.0000)
  31 Cu     7.861111    0.000000   18.198340    ( 0.0000,  0.0000,  0.0000)
  32 Cu    10.207076    0.000000   19.367696    ( 0.0000,  0.0000,  0.0000)
  33 Cu     8.461797    1.850500   19.947574    ( 0.0000,  0.0000,  0.0000)
  34 Cu     2.610002    1.850500   19.947574    ( 0.0000,  0.0000,  0.0000)
  35 Cu     4.355281    0.000000   19.367696    ( 0.0000,  0.0000,  0.0000)
  36 Cu     6.707307    0.000000   20.545955    ( 0.0000,  0.0000,  0.0000)
  37 Cu     4.948494    1.850500   21.142857    ( 0.0000,  0.0000,  0.0000)
  38 Cu    10.800289    1.850500   21.142857    ( 0.0000,  0.0000,  0.0000)
  39 Cu     0.855512    0.000000   20.545955    ( 0.0000,  0.0000,  0.0000)
  40 Cu     3.156198    0.000000   21.761917    ( 0.0000,  0.0000,  0.0000)
  41 Cu     1.426197    1.850500   22.305584    ( 0.0000,  0.0000,  0.0000)
  42 Cu     7.277992    1.850500   22.305584    ( 0.0000,  0.0000,  0.0000)
  43 Cu     9.007993    0.000000   21.761917    ( 0.0000,  0.0000,  0.0000)
  44 Cu    11.378509    0.000000   22.847681    ( 0.0000,  0.0000,  0.0000)
  45 Cu     9.644122    1.850500   23.371222    ( 0.0000,  0.0000,  0.0000)
  46 Cu     3.792328    1.850500   23.371222    ( 0.0000,  0.0000,  0.0000)
  47 Cu     5.526714    0.000000   22.847680    ( 0.0000,  0.0000,  0.0000)
  48 Cu     3.164331    3.701000   10.088057    ( 0.0000,  0.0000,  0.0000)
  49 Cu     1.429964    5.551500   10.611554    ( 0.0000,  0.0000,  0.0000)
  50 Cu     7.281759    5.551500   10.611554    ( 0.0000,  0.0000,  0.0000)
  51 Cu     9.016126    3.701000   10.088057    ( 0.0000,  0.0000,  0.0000)
  52 Cu    11.382200    3.701000   11.153633    ( 0.0000,  0.0000,  0.0000)
  53 Cu     9.652178    5.551500   11.697249    ( 0.0000,  0.0000,  0.0000)
  54 Cu     3.800384    5.551500   11.697249    ( 0.0000,  0.0000,  0.0000)
  55 Cu     5.530405    3.701000   11.153632    ( 0.0000,  0.0000,  0.0000)
  56 Cu     7.859892    3.701000   12.316308    ( 0.0000,  0.0000,  0.0000)
  57 Cu     6.101101    5.551500   12.913244    ( 0.0000,  0.0000,  0.0000)
  58 Cu     0.249306    5.551500   12.913244    ( 0.0000,  0.0000,  0.0000)
  59 Cu     2.008097    3.701000   12.316308    ( 0.0000,  0.0000,  0.0000)
  60 Cu     4.346601    3.701000   13.511660    ( 0.0000,  0.0000,  0.0000)
  61 Cu     2.601324    5.551500   14.091514    ( 0.0000,  0.0000,  0.0000)
  62 Cu     8.453119    5.551500   14.091514    ( 0.0000,  0.0000,  0.0000)
  63 Cu    10.198396    3.701000   13.511660    ( 0.0000,  0.0000,  0.0000)
  64 Cu     0.850627    3.701000   14.672487    ( 0.0000,  0.0000,  0.0000)
  65 Cu    10.799095    5.551500   15.260932    ( 0.0000,  0.0000,  0.0000)
  66 Cu     4.947300    5.551500   15.260932    ( 0.0000,  0.0000,  0.0000)
  67 Cu     6.702422    3.701000   14.672487    ( 0.0000,  0.0000,  0.0000)
  68 Cu     9.036640    3.701000   15.857249    ( 0.0000,  0.0000,  0.0000)
  69 Cu     7.281613    5.551500   16.440079    ( 0.0000,  0.0000,  0.0000)
  70 Cu     1.429818    5.551500   16.440079    ( 0.0000,  0.0000,  0.0000)
  71 Cu     3.184846    3.701000   15.857249    ( 0.0000,  0.0000,  0.0000)
  72 Cu     5.526780    3.701000   17.019179    ( 0.0000,  0.0000,  0.0000)
  73 Cu     3.771767    5.551500   17.602021    ( 0.0000,  0.0000,  0.0000)
  74 Cu     9.623562    5.551500   17.602021    ( 0.0000,  0.0000,  0.0000)
  75 Cu    11.378575    3.701000   17.019179    ( 0.0000,  0.0000,  0.0000)
  76 Cu     2.009316    3.701000   18.198340    ( 0.0000,  0.0000,  0.0000)
  77 Cu     0.254165    5.551500   18.786768    ( 0.0000,  0.0000,  0.0000)
  78 Cu     6.105960    5.551500   18.786768    ( 0.0000,  0.0000,  0.0000)
  79 Cu     7.861111    3.701000   18.198340    ( 0.0000,  0.0000,  0.0000)
  80 Cu    10.207076    3.701000   19.367696    ( 0.0000,  0.0000,  0.0000)
  81 Cu     8.461797    5.551500   19.947574    ( 0.0000,  0.0000,  0.0000)
  82 Cu     2.610002    5.551500   19.947574    ( 0.0000,  0.0000,  0.0000)
  83 Cu     4.355281    3.701000   19.367696    ( 0.0000,  0.0000,  0.0000)
  84 Cu     6.707306    3.701000   20.545955    ( 0.0000,  0.0000,  0.0000)
  85 Cu     4.948494    5.551500   21.142857    ( 0.0000,  0.0000,  0.0000)
  86 Cu    10.800289    5.551500   21.142857    ( 0.0000,  0.0000,  0.0000)
  87 Cu     0.855512    3.701000   20.545955    ( 0.0000,  0.0000,  0.0000)
  88 Cu     3.156198    3.701000   21.761917    ( 0.0000,  0.0000,  0.0000)
  89 Cu     1.426197    5.551500   22.305584    ( 0.0000,  0.0000,  0.0000)
  90 Cu     7.277992    5.551500   22.305584    ( 0.0000,  0.0000,  0.0000)
  91 Cu     9.007993    3.701000   21.761917    ( 0.0000,  0.0000,  0.0000)
  92 Cu    11.378509    3.701000   22.847680    ( 0.0000,  0.0000,  0.0000)
  93 Cu     9.644122    5.551500   23.371222    ( 0.0000,  0.0000,  0.0000)
  94 Cu     3.792328    5.551500   23.371222    ( 0.0000,  0.0000,  0.0000)
  95 Cu     5.526714    3.701000   22.847681    ( 0.0000,  0.0000,  0.0000)

Unit cell:
           periodic     x           y           z      points  spacing
  1. axis:    yes   11.703590    0.000000    0.000000    70     0.1672
  2. axis:    yes    0.000000    7.402000    0.000000    42     0.1762
  3. axis:    no     0.000000    0.000000   33.459128   192     0.1743

  Lengths:  11.703590   7.402000  33.459128
  Angles:   90.000000  90.000000  90.000000

Effective grid spacing dv^(1/3) = 0.1725

                     log10-error:    total        iterations:
           time      wfs    density  energy       fermi  poisson
iter:   1  23:42:18  -1.87   +inf  -7272.986891    36            
iter:   2  23:44:02  -1.99  -1.92  -7266.864190    36            
iter:   3  23:45:45  -3.65  -2.52  -7266.250418    4             
iter:   4  23:47:29  -4.37  -2.80  -7266.239695    3             
iter:   5  23:49:11  -4.19  -2.85  -7266.198069    3             
iter:   6  23:50:55  -4.28  -3.06  -7266.187497    3             
iter:   7  23:52:38  -4.54  -3.35  -7266.184003    2             
iter:   8  23:54:21  -5.51  -3.53  -7266.183928    2             
iter:   9  23:56:04  -4.86  -3.60  -7266.184255    3             
iter:  10  23:57:47  -5.97  -3.75  -7266.182949    2             
iter:  11  23:59:31  -5.67  -3.95  -7266.182804    2             
iter:  12  00:01:15  -5.85  -4.01  -7266.182616    2             
iter:  13  00:02:59  -6.27  -4.20  -7266.182596    2             
iter:  14  00:04:43  -6.83  -4.36  -7266.182386    2             
iter:  15  00:06:26  -7.61  -4.50  -7266.182350    2             

Converged after 15 iterations.

Dipole moment: (21.652140, 0.000000, 0.000565) |e|*Ang

Energy contributions relative to reference atoms: (reference = -4322059.376747)

Kinetic:       +661.415384
Potential:     -744.045423
External:        +0.000000
XC:            -7181.684041
Entropy (-ST):   -0.941205
Local:           -1.397668
--------------------------
Free energy:   -7266.652952
Extrapolated:  -7266.182350

Fermi level: 0.35846

Showing only first 2 kpts
 Kpt  Band  Eigenvalues  Occupancy
  0   526      0.08644    0.46910
  0   527      0.18727    0.42354
  0   528      0.18868    0.42262
  0   529      0.20642    0.41030

  1   526      0.46258    0.13046
  1   527      0.47107    0.12245
  1   528      0.47778    0.11635
  1   529      0.51882    0.08374


No gap

Forces in eV/Ang:
  0 Cu   -0.03060    0.00000   -0.00395
  1 Cu   -0.03238    0.00000    0.02109
  2 Cu   -0.03238   -0.00000    0.02109
  3 Cu   -0.03059    0.00000   -0.00395
  4 Cu    0.03218    0.00000   -0.03168
  5 Cu    0.04995   -0.00000    0.03014
  6 Cu    0.04995   -0.00000    0.03014
  7 Cu    0.03218    0.00000   -0.03168
  8 Cu   -0.01959    0.00000    0.09682
  9 Cu   -0.02273   -0.00000    0.01217
 10 Cu   -0.02273    0.00000    0.01217
 11 Cu   -0.01959    0.00000    0.09682
 12 Cu   -0.01143    0.00000   -0.03693
 13 Cu    0.00742   -0.00000   -0.03656
 14 Cu    0.00742   -0.00000   -0.03656
 15 Cu   -0.01143    0.00000   -0.03693
 16 Cu    0.00382    0.00000   -0.02354
 17 Cu   -0.00021    0.00000   -0.01710
 18 Cu   -0.00021    0.00000   -0.01710
 19 Cu    0.00382    0.00000   -0.02354
 20 Cu   -0.00274    0.00000   -0.01388
 21 Cu   -0.00377    0.00000   -0.00232
 22 Cu   -0.00377    0.00000   -0.00232
 23 Cu   -0.00274    0.00000   -0.01388
 24 Cu    0.00423    0.00000    0.00127
 25 Cu    0.00311   -0.00000    0.01265
 26 Cu    0.00312    0.00000    0.01265
 27 Cu    0.00423    0.00000    0.00127
 28 Cu    0.00048    0.00000    0.01578
 29 Cu   -0.00330    0.00000    0.02260
 30 Cu   -0.00330    0.00000    0.02260
 31 Cu    0.00048    0.00000    0.01578
 32 Cu   -0.00699    0.00000    0.03624
 33 Cu    0.01183   -0.00000    0.03626
 34 Cu    0.01183    0.00000    0.03626
 35 Cu   -0.00699    0.00000    0.03624
 36 Cu    0.02286    0.00000   -0.01227
 37 Cu    0.02011   -0.00000   -0.09625
 38 Cu    0.02011    0.00000   -0.09625
 39 Cu    0.02286    0.00000   -0.01227
 40 Cu   -0.04966    0.00000   -0.02963
 41 Cu   -0.03150    0.00000    0.03146
 42 Cu   -0.03149   -0.00000    0.03146
 43 Cu   -0.04967    0.00000   -0.02963
 44 Cu    0.03250    0.00000   -0.02153
 45 Cu    0.03080   -0.00000    0.00310
 46 Cu    0.03080    0.00000    0.00310
 47 Cu    0.03250    0.00000   -0.02153
 48 Cu   -0.03060    0.00000   -0.00395
 49 Cu   -0.03238   -0.00000    0.02109
 50 Cu   -0.03238    0.00000    0.02109
 51 Cu   -0.03060    0.00000   -0.00395
 52 Cu    0.03218    0.00000   -0.03168
 53 Cu    0.04995    0.00000    0.03014
 54 Cu    0.04995    0.00000    0.03014
 55 Cu    0.03218    0.00000   -0.03168
 56 Cu   -0.01959    0.00000    0.09682
 57 Cu   -0.02273    0.00000    0.01217
 58 Cu   -0.02273   -0.00000    0.01217
 59 Cu   -0.01959    0.00000    0.09682
 60 Cu   -0.01143    0.00000   -0.03693
 61 Cu    0.00742    0.00000   -0.03656
 62 Cu    0.00742    0.00000   -0.03656
 63 Cu   -0.01143    0.00000   -0.03693
 64 Cu    0.00382    0.00000   -0.02354
 65 Cu   -0.00021   -0.00000   -0.01710
 66 Cu   -0.00021   -0.00000   -0.01710
 67 Cu    0.00382    0.00000   -0.02354
 68 Cu   -0.00274    0.00000   -0.01388
 69 Cu   -0.00377   -0.00000   -0.00232
 70 Cu   -0.00377   -0.00000   -0.00232
 71 Cu   -0.00274    0.00000   -0.01388
 72 Cu    0.00423    0.00000    0.00127
 73 Cu    0.00311    0.00000    0.01265
 74 Cu    0.00312   -0.00000    0.01265
 75 Cu    0.00423    0.00000    0.00127
 76 Cu    0.00048    0.00000    0.01578
 77 Cu   -0.00330   -0.00000    0.02260
 78 Cu   -0.00330   -0.00000    0.02260
 79 Cu    0.00048    0.00000    0.01578
 80 Cu   -0.00699    0.00000    0.03624
 81 Cu    0.01183    0.00000    0.03626
 82 Cu    0.01183   -0.00000    0.03626
 83 Cu   -0.00699    0.00000    0.03624
 84 Cu    0.02286    0.00000   -0.01227
 85 Cu    0.02011    0.00000   -0.09625
 86 Cu    0.02011   -0.00000   -0.09625
 87 Cu    0.02286    0.00000   -0.01227
 88 Cu   -0.04966    0.00000   -0.02963
 89 Cu   -0.03150   -0.00000    0.03146
 90 Cu   -0.03149    0.00000    0.03146
 91 Cu   -0.04966    0.00000   -0.02963
 92 Cu    0.03250    0.00000   -0.02153
 93 Cu    0.03080    0.00000    0.00310
 94 Cu    0.03080   -0.00000    0.00310
 95 Cu    0.03250    0.00000   -0.02153

System changes: positions 

Initializing position-dependent things.

Density initialized from wave functions
      .----------------------------.  
     /|                            |  
    / |                            |  
   /  |                            |  
  /   |                            |  
 *    |                            |  
 |    |                            |  
 |    |                            |  
 |    |                            |  
 |    |                            |  
 |    |                            |  
 |    |                            |  
 |    |                            |  
 |    |                            |  
 |    |       Cu             Cu    |  
 |    | Cu             Cu          |  
 |    |     Cu   Cu       Cu    Cu |  
 |    Cu   Cu       Cu    Cu       |  
 |    Cu   Cu  Cu   Cu    Cu Cu    |  
 |   Cu  Cu    Cu   Cu Cu    Cu    |  
 |    |  Cu   Cu       Cu    Cu    |  
 | Cu | Cu    Cu  Cu   Cu    Cu    |  
 | Cu | Cu  Cu   Cu    Cu Cu       |  
 |    |     Cu   Cu       Cu    Cu |  
 |    Cu   Cu    Cu Cu    Cu    Cu |  
 |    Cu   Cu  Cu   Cu    Cu Cu    |  
 |   CCu       Cu   Cu       Cu    |  
 |    |  Cu   Cu       Cu    Cu    |  
 | Cu | Cu    Cu  Cu   Cu    Cu    |  
 | Cu | Cu  Cu   Cu    Cu Cu       |  
 |    |     Cu   Cu       Cu    Cu |  
 |    Cu   Cu       Cu    Cu       |  
 |    Cu       Cu   Cu       Cu    |  
 |    |                            |  
 |    |  Cu            Cu          |  
 |    |                            |  
 |    |                            |  
 |    |                            |  
 |    |                            |  
 |    |                            |  
 |    |                            |  
 |    .----------------------------.  
 |   /                            /   
 |  /                            /    
 | /                            /     
 |/                            /      
 *----------------------------*       

Positions:
   0 Cu     3.159415    0.000000   10.094456    ( 0.0000,  0.0000,  0.0000)
   1 Cu     1.426627    1.850500   10.615898    ( 0.0000,  0.0000,  0.0000)
   2 Cu     7.278422    1.850500   10.615898    ( 0.0000,  0.0000,  0.0000)
   3 Cu     9.011210    0.000000   10.094456    ( 0.0000,  0.0000,  0.0000)
   4 Cu    11.385938    0.000000   11.148972    ( 0.0000,  0.0000,  0.0000)
   5 Cu     9.659657    1.850500   11.695788    ( 0.0000,  0.0000,  0.0000)
   6 Cu     3.807862    1.850500   11.695788    ( 0.0000,  0.0000,  0.0000)
   7 Cu     5.534143    0.000000   11.148972    ( 0.0000,  0.0000,  0.0000)
   8 Cu     7.857204    0.000000   12.324482    ( 0.0000,  0.0000,  0.0000)
   9 Cu     6.097883    1.850500   12.913552    ( 0.0000,  0.0000,  0.0000)
  10 Cu     0.246088    1.850500   12.913552    ( 0.0000,  0.0000,  0.0000)
  11 Cu     2.005409    0.000000   12.324482    ( 0.0000,  0.0000,  0.0000)
  12 Cu     4.344771    0.000000   13.507923    ( 0.0000,  0.0000,  0.0000)
  13 Cu     2.602186    1.850500   14.087510    ( 0.0000,  0.0000,  0.0000)
  14 Cu     8.453981    1.850500   14.087510    ( 0.0000,  0.0000,  0.0000)
  15 Cu    10.196566    0.000000   13.507923    ( 0.0000,  0.0000,  0.0000)
  16 Cu     0.851418    0.000000   14.669403    ( 0.0000,  0.0000,  0.0000)
  17 Cu    10.799508    1.850500   15.258632    ( 0.0000,  0.0000,  0.0000)
  18 Cu     4.947713    1.850500   15.258632    ( 0.0000,  0.0000,  0.0000)
  19 Cu     6.703213    0.000000   14.669403    ( 0.0000,  0.0000,  0.0000)
  20 Cu     9.036283    0.000000   15.856117    ( 0.0000,  0.0000,  0.0000)
  21 Cu     7.281213    1.850500   16.440016    ( 0.0000,  0.0000,  0.0000)
  22 Cu     1.429418    1.850500   16.440016    ( 0.0000,  0.0000,  0.0000)
  23 Cu     3.184488    0.000000   15.856117    ( 0.0000,  0.0000,  0.0000)
  24 Cu     5.527238    0.000000   17.019136    ( 0.0000,  0.0000,  0.0000)
  25 Cu     3.772177    1.850500   17.603028    ( 0.0000,  0.0000,  0.0000)
  26 Cu     9.623972    1.850500   17.603028    ( 0.0000,  0.0000,  0.0000)
  27 Cu    11.379033    0.000000   17.019136    ( 0.0000,  0.0000,  0.0000)
  28 Cu     2.008942    0.000000   18.200502    ( 0.0000,  0.0000,  0.0000)
  29 Cu     0.253439    1.850500   18.789757    ( 0.0000,  0.0000,  0.0000)
  30 Cu     6.105234    1.850500   18.789757    ( 0.0000,  0.0000,  0.0000)
  31 Cu     7.860736    0.000000   18.200502    ( 0.0000,  0.0000,  0.0000)
  32 Cu    10.206270    0.000000   19.371669    ( 0.0000,  0.0000,  0.0000)
  33 Cu     8.463680    1.850500   19.951242    ( 0.0000,  0.0000,  0.0000)
  34 Cu     2.611885    1.850500   19.951242    ( 0.0000,  0.0000,  0.0000)
  35 Cu     4.354475    0.000000   19.371669    ( 0.0000,  0.0000,  0.0000)
  36 Cu     6.710549    0.000000   20.545639    ( 0.0000,  0.0000,  0.0000)
  37 Cu     4.951248    1.850500   21.134749    ( 0.0000,  0.0000,  0.0000)
  38 Cu    10.803043    1.850500   21.134749    ( 0.0000,  0.0000,  0.0000)
  39 Cu     0.858754    0.000000   20.545639    ( 0.0000,  0.0000,  0.0000)
  40 Cu     3.148759    0.000000   21.763439    ( 0.0000,  0.0000,  0.0000)
  41 Cu     1.422544    1.850500   22.310226    ( 0.0000,  0.0000,  0.0000)
  42 Cu     7.274338    1.850500   22.310226    ( 0.0000,  0.0000,  0.0000)
  43 Cu     9.000554    0.000000   21.763439    ( 0.0000,  0.0000,  0.0000)
  44 Cu    11.381873    0.000000   22.843296    ( 0.0000,  0.0000,  0.0000)
  45 Cu     9.649075    1.850500   23.364740    ( 0.0000,  0.0000,  0.0000)
  46 Cu     3.797281    1.850500   23.364740    ( 0.0000,  0.0000,  0.0000)
  47 Cu     5.530078    0.000000   22.843296    ( 0.0000,  0.0000,  0.0000)
  48 Cu     3.159415    3.701000   10.094456    ( 0.0000,  0.0000,  0.0000)
  49 Cu     1.426627    5.551500   10.615898    ( 0.0000,  0.0000,  0.0000)
  50 Cu     7.278422    5.551500   10.615898    ( 0.0000,  0.0000,  0.0000)
  51 Cu     9.011210    3.701000   10.094456    ( 0.0000,  0.0000,  0.0000)
  52 Cu    11.385938    3.701000   11.148972    ( 0.0000,  0.0000,  0.0000)
  53 Cu     9.659657    5.551500   11.695788    ( 0.0000,  0.0000,  0.0000)
  54 Cu     3.807862    5.551500   11.695788    ( 0.0000,  0.0000,  0.0000)
  55 Cu     5.534143    3.701000   11.148972    ( 0.0000,  0.0000,  0.0000)
  56 Cu     7.857203    3.701000   12.324482    ( 0.0000,  0.0000,  0.0000)
  57 Cu     6.097883    5.551500   12.913552    ( 0.0000,  0.0000,  0.0000)
  58 Cu     0.246088    5.551500   12.913552    ( 0.0000,  0.0000,  0.0000)
  59 Cu     2.005409    3.701000   12.324482    ( 0.0000,  0.0000,  0.0000)
  60 Cu     4.344771    3.701000   13.507923    ( 0.0000,  0.0000,  0.0000)
  61 Cu     2.602186    5.551500   14.087510    ( 0.0000,  0.0000,  0.0000)
  62 Cu     8.453981    5.551500   14.087510    ( 0.0000,  0.0000,  0.0000)
  63 Cu    10.196566    3.701000   13.507923    ( 0.0000,  0.0000,  0.0000)
  64 Cu     0.851418    3.701000   14.669403    ( 0.0000,  0.0000,  0.0000)
  65 Cu    10.799508    5.551500   15.258632    ( 0.0000,  0.0000,  0.0000)
  66 Cu     4.947713    5.551500   15.258632    ( 0.0000,  0.0000,  0.0000)
  67 Cu     6.703213    3.701000   14.669403    ( 0.0000,  0.0000,  0.0000)
  68 Cu     9.036283    3.701000   15.856117    ( 0.0000,  0.0000,  0.0000)
  69 Cu     7.281213    5.551500   16.440016    ( 0.0000,  0.0000,  0.0000)
  70 Cu     1.429418    5.551500   16.440016    ( 0.0000,  0.0000,  0.0000)
  71 Cu     3.184488    3.701000   15.856117    ( 0.0000,  0.0000,  0.0000)
  72 Cu     5.527238    3.701000   17.019136    ( 0.0000,  0.0000,  0.0000)
  73 Cu     3.772177    5.551500   17.603028    ( 0.0000,  0.0000,  0.0000)
  74 Cu     9.623972    5.551500   17.603028    ( 0.0000,  0.0000,  0.0000)
  75 Cu    11.379033    3.701000   17.019136    ( 0.0000,  0.0000,  0.0000)
  76 Cu     2.008942    3.701000   18.200502    ( 0.0000,  0.0000,  0.0000)
  77 Cu     0.253439    5.551500   18.789757    ( 0.0000,  0.0000,  0.0000)
  78 Cu     6.105234    5.551500   18.789757    ( 0.0000,  0.0000,  0.0000)
  79 Cu     7.860736    3.701000   18.200502    ( 0.0000,  0.0000,  0.0000)
  80 Cu    10.206270    3.701000   19.371669    ( 0.0000,  0.0000,  0.0000)
  81 Cu     8.463680    5.551500   19.951242    ( 0.0000,  0.0000,  0.0000)
  82 Cu     2.611885    5.551500   19.951242    ( 0.0000,  0.0000,  0.0000)
  83 Cu     4.354475    3.701000   19.371669    ( 0.0000,  0.0000,  0.0000)
  84 Cu     6.710549    3.701000   20.545639    ( 0.0000,  0.0000,  0.0000)
  85 Cu     4.951248    5.551500   21.134749    ( 0.0000,  0.0000,  0.0000)
  86 Cu    10.803043    5.551500   21.134749    ( 0.0000,  0.0000,  0.0000)
  87 Cu     0.858754    3.701000   20.545639    ( 0.0000,  0.0000,  0.0000)
  88 Cu     3.148759    3.701000   21.763439    ( 0.0000,  0.0000,  0.0000)
  89 Cu     1.422544    5.551500   22.310226    ( 0.0000,  0.0000,  0.0000)
  90 Cu     7.274338    5.551500   22.310226    ( 0.0000,  0.0000,  0.0000)
  91 Cu     9.000554    3.701000   21.763439    ( 0.0000,  0.0000,  0.0000)
  92 Cu    11.381873    3.701000   22.843296    ( 0.0000,  0.0000,  0.0000)
  93 Cu     9.649075    5.551500   23.364740    ( 0.0000,  0.0000,  0.0000)
  94 Cu     3.797281    5.551500   23.364740    ( 0.0000,  0.0000,  0.0000)
  95 Cu     5.530078    3.701000   22.843296    ( 0.0000,  0.0000,  0.0000)

Unit cell:
           periodic     x           y           z      points  spacing
  1. axis:    yes   11.703590    0.000000    0.000000    70     0.1672
  2. axis:    yes    0.000000    7.402000    0.000000    42     0.1762
  3. axis:    no     0.000000    0.000000   33.459128   192     0.1743

  Lengths:  11.703590   7.402000  33.459128
  Angles:   90.000000  90.000000  90.000000

Effective grid spacing dv^(1/3) = 0.1725

                     log10-error:    total        iterations:
           time      wfs    density  energy       fermi  poisson
iter:   1  00:08:40  -3.13   +inf  -7266.297667    3             
iter:   2  00:10:23  -4.06  -2.87  -7266.238163    3             
iter:   3  00:12:06  -4.36  -3.02  -7266.238890    3             
iter:   4  00:13:48  -4.48  -3.02  -7266.204107    3             
iter:   5  00:15:32  -4.56  -3.29  -7266.197831    3             
iter:   6  00:17:16  -4.95  -3.65  -7266.196147    3             
iter:   7  00:19:00  -6.10  -3.99  -7266.196202    2             
iter:   8  00:20:44  -5.47  -4.01  -7266.195756    2             
iter:   9  00:22:27  -5.98  -4.27  -7266.196048    2             
iter:  10  00:24:10  -6.16  -4.38  -7266.195690    2             
iter:  11  00:25:53  -6.29  -4.49  -7266.195684    2             
iter:  12  00:27:36  -7.63  -4.59  -7266.195679    2             

Converged after 12 iterations.

Dipole moment: (21.845782, 0.000000, 0.001098) |e|*Ang

Energy contributions relative to reference atoms: (reference = -4322059.376747)

Kinetic:       +662.072227
Potential:     -744.615930
External:        +0.000000
XC:            -7181.804367
Entropy (-ST):   -0.940631
Local:           -1.377294
--------------------------
Free energy:   -7266.665995
Extrapolated:  -7266.195679

Fermi level: 0.35557

Showing only first 2 kpts
 Kpt  Band  Eigenvalues  Occupancy
  0   526      0.08386    0.46901
  0   527      0.18152    0.42537
  0   528      0.18621    0.42234
  0   529      0.20315    0.41057

  1   526      0.46078    0.12941
  1   527      0.46747    0.12310
  1   528      0.47430    0.11686
  1   529      0.51557    0.08399


No gap

Forces in eV/Ang:
  0 Cu   -0.02813    0.00000   -0.00866
  1 Cu   -0.00565   -0.00000    0.02104
  2 Cu   -0.00565   -0.00000    0.02104
  3 Cu   -0.02813    0.00000   -0.00865
  4 Cu    0.01768    0.00000   -0.02361
  5 Cu    0.00734    0.00000    0.02544
  6 Cu    0.00734    0.00000    0.02544
  7 Cu    0.01768    0.00000   -0.02361
  8 Cu   -0.00321    0.00000    0.05154
  9 Cu   -0.01243    0.00000    0.01748
 10 Cu   -0.01243   -0.00000    0.01748
 11 Cu   -0.00321    0.00000    0.05154
 12 Cu    0.00323    0.00000   -0.02613
 13 Cu    0.00426   -0.00000   -0.01339
 14 Cu    0.00426    0.00000   -0.01339
 15 Cu    0.00323    0.00000   -0.02613
 16 Cu   -0.00886    0.00000   -0.00366
 17 Cu   -0.00584    0.00000   -0.01057
 18 Cu   -0.00584   -0.00000   -0.01057
 19 Cu   -0.00886    0.00000   -0.00366
 20 Cu    0.00131    0.00000   -0.01486
 21 Cu   -0.00029   -0.00000   -0.00415
 22 Cu   -0.00029   -0.00000   -0.00415
 23 Cu    0.00131    0.00000   -0.01486
 24 Cu    0.00054    0.00000    0.00281
 25 Cu   -0.00084   -0.00000    0.01335
 26 Cu   -0.00084    0.00000    0.01335
 27 Cu    0.00054    0.00000    0.00281
 28 Cu    0.00620    0.00000    0.00905
 29 Cu    0.00916   -0.00000    0.00258
 30 Cu    0.00916   -0.00000    0.00258
 31 Cu    0.00620    0.00000    0.00905
 32 Cu   -0.00400    0.00000    0.01265
 33 Cu   -0.00274    0.00000    0.02500
 34 Cu   -0.00274    0.00000    0.02500
 35 Cu   -0.00400    0.00000    0.01265
 36 Cu    0.01273    0.00000   -0.01816
 37 Cu    0.00370   -0.00000   -0.05194
 38 Cu    0.00370   -0.00000   -0.05194
 39 Cu    0.01273    0.00000   -0.01816
 40 Cu   -0.00737    0.00000   -0.02582
 41 Cu   -0.01718   -0.00000    0.02284
 42 Cu   -0.01718    0.00000    0.02284
 43 Cu   -0.00737    0.00000   -0.02582
 44 Cu    0.00594    0.00000   -0.02185
 45 Cu    0.02821    0.00000    0.00755
 46 Cu    0.02821    0.00000    0.00755
 47 Cu    0.00594    0.00000   -0.02185
 48 Cu   -0.02813    0.00000   -0.00866
 49 Cu   -0.00565    0.00000    0.02104
 50 Cu   -0.00565    0.00000    0.02104
 51 Cu   -0.02813    0.00000   -0.00866
 52 Cu    0.01768    0.00000   -0.02361
 53 Cu    0.00734   -0.00000    0.02544
 54 Cu    0.00734   -0.00000    0.02544
 55 Cu    0.01768    0.00000   -0.02361
 56 Cu   -0.00321    0.00000    0.05154
 57 Cu   -0.01243   -0.00000    0.01748
 58 Cu   -0.01243    0.00000    0.01748
 59 Cu   -0.00321    0.00000    0.05154
 60 Cu    0.00323    0.00000   -0.02613
 61 Cu    0.00426    0.00000   -0.01339
 62 Cu    0.00426   -0.00000   -0.01339
 63 Cu    0.00323    0.00000   -0.02613
 64 Cu   -0.00886    0.00000   -0.00366
 65 Cu   -0.00584   -0.00000   -0.01057
 66 Cu   -0.00584    0.00000   -0.01057
 67 Cu   -0.00886    0.00000   -0.00366
 68 Cu    0.00131    0.00000   -0.01486
 69 Cu   -0.00029    0.00000   -0.00415
 70 Cu   -0.00029    0.00000   -0.00415
 71 Cu    0.00131    0.00000   -0.01486
 72 Cu    0.00054    0.00000    0.00281
 73 Cu   -0.00084    0.00000    0.01335
 74 Cu   -0.00084   -0.00000    0.01335
 75 Cu    0.00054    0.00000    0.00281
 76 Cu    0.00620    0.00000    0.00905
 77 Cu    0.00916    0.00000    0.00258
 78 Cu    0.00916    0.00000    0.00258
 79 Cu    0.00620    0.00000    0.00905
 80 Cu   -0.00400    0.00000    0.01265
 81 Cu   -0.00274   -0.00000    0.02500
 82 Cu   -0.00274   -0.00000    0.02500
 83 Cu   -0.00400    0.00000    0.01265
 84 Cu    0.01273    0.00000   -0.01816
 85 Cu    0.00370    0.00000   -0.05194
 86 Cu    0.00370    0.00000   -0.05194
 87 Cu    0.01273    0.00000   -0.01816
 88 Cu   -0.00737    0.00000   -0.02582
 89 Cu   -0.01718    0.00000    0.02284
 90 Cu   -0.01718   -0.00000    0.02284
 91 Cu   -0.00737    0.00000   -0.02582
 92 Cu    0.00594    0.00000   -0.02185
 93 Cu    0.02821   -0.00000    0.00755
 94 Cu    0.02821   -0.00000    0.00755
 95 Cu    0.00594    0.00000   -0.02185

System changes: positions 

Initializing position-dependent things.

Density initialized from wave functions
      .----------------------------.  
     /|                            |  
    / |                            |  
   /  |                            |  
  /   |                            |  
 *    |                            |  
 |    |                            |  
 |    |                            |  
 |    |                            |  
 |    |                            |  
 |    |                            |  
 |    |                            |  
 |    |                            |  
 |    |                            |  
 |    |       Cu             Cu    |  
 |    | Cu             Cu          |  
 |    |     Cu   Cu       Cu    Cu |  
 |    Cu   Cu       Cu    Cu       |  
 |    Cu   Cu  Cu   Cu    Cu Cu    |  
 |   Cu  Cu    Cu   Cu Cu    Cu    |  
 |    |  Cu   Cu       Cu    Cu    |  
 | Cu | Cu    Cu  Cu   Cu    Cu    |  
 | Cu | Cu  Cu   Cu    Cu Cu       |  
 |    |     Cu   Cu       Cu    Cu |  
 |    Cu   Cu    Cu Cu    Cu    Cu |  
 |    Cu   Cu  Cu   Cu    Cu Cu    |  
 |   CCu       Cu   Cu       Cu    |  
 |    |  Cu   Cu       Cu    Cu    |  
 | Cu | Cu    Cu  Cu   Cu    Cu    |  
 | Cu | Cu  Cu   Cu    Cu Cu       |  
 |    |     Cu   Cu       Cu    Cu |  
 |    Cu   Cu       Cu    Cu       |  
 |    Cu       Cu   Cu       Cu    |  
 |    |                            |  
 |    |  Cu            Cu          |  
 |    |                            |  
 |    |                            |  
 |    |                            |  
 |    |                            |  
 |    |                            |  
 |    |                            |  
 |    .----------------------------.  
 |   /                            /   
 |  /                            /    
 | /                            /     
 |/                            /      
 *----------------------------*       

Positions:
   0 Cu     3.153037    0.000000   10.102759    ( 0.0000,  0.0000,  0.0000)
   1 Cu     1.422299    1.850500   10.621534    ( 0.0000,  0.0000,  0.0000)
   2 Cu     7.274093    1.850500   10.621534    ( 0.0000,  0.0000,  0.0000)
   3 Cu     9.004832    0.000000   10.102759    ( 0.0000,  0.0000,  0.0000)
   4 Cu    11.390789    0.000000   11.142926    ( 0.0000,  0.0000,  0.0000)
   5 Cu     9.669361    1.850500   11.693891    ( 0.0000,  0.0000,  0.0000)
   6 Cu     3.817566    1.850500   11.693891    ( 0.0000,  0.0000,  0.0000)
   7 Cu     5.538994    0.000000   11.142926    ( 0.0000,  0.0000,  0.0000)
   8 Cu     7.853716    0.000000   12.335087    ( 0.0000,  0.0000,  0.0000)
   9 Cu     6.093707    1.850500   12.913952    ( 0.0000,  0.0000,  0.0000)
  10 Cu     0.241912    1.850500   12.913952    ( 0.0000,  0.0000,  0.0000)
  11 Cu     2.001921    0.000000   12.335087    ( 0.0000,  0.0000,  0.0000)
  12 Cu     4.342398    0.000000   13.503074    ( 0.0000,  0.0000,  0.0000)
  13 Cu     2.603306    1.850500   14.082314    ( 0.0000,  0.0000,  0.0000)
  14 Cu     8.455101    1.850500   14.082314    ( 0.0000,  0.0000,  0.0000)
  15 Cu    10.194192    0.000000   13.503074    ( 0.0000,  0.0000,  0.0000)
  16 Cu     0.852445    0.000000   14.665401    ( 0.0000,  0.0000,  0.0000)
  17 Cu    10.800045    1.850500   15.255647    ( 0.0000,  0.0000,  0.0000)
  18 Cu     4.948250    1.850500   15.255647    ( 0.0000,  0.0000,  0.0000)
  19 Cu     6.704240    0.000000   14.665401    ( 0.0000,  0.0000,  0.0000)
  20 Cu     9.035818    0.000000   15.854649    ( 0.0000,  0.0000,  0.0000)
  21 Cu     7.280694    1.850500   16.439933    ( 0.0000,  0.0000,  0.0000)
  22 Cu     1.428900    1.850500   16.439933    ( 0.0000,  0.0000,  0.0000)
  23 Cu     3.184024    0.000000   15.854649    ( 0.0000,  0.0000,  0.0000)
  24 Cu     5.527833    0.000000   17.019080    ( 0.0000,  0.0000,  0.0000)
  25 Cu     3.772708    1.850500   17.604333    ( 0.0000,  0.0000,  0.0000)
  26 Cu     9.624503    1.850500   17.604333    ( 0.0000,  0.0000,  0.0000)
  27 Cu    11.379628    0.000000   17.019080    ( 0.0000,  0.0000,  0.0000)
  28 Cu     2.008456    0.000000   18.203308    ( 0.0000,  0.0000,  0.0000)
  29 Cu     0.252496    1.850500   18.793635    ( 0.0000,  0.0000,  0.0000)
  30 Cu     6.104291    1.850500   18.793635    ( 0.0000,  0.0000,  0.0000)
  31 Cu     7.860251    0.000000   18.203308    ( 0.0000,  0.0000,  0.0000)
  32 Cu    10.205224    0.000000   19.376824    ( 0.0000,  0.0000,  0.0000)
  33 Cu     8.466123    1.850500   19.956001    ( 0.0000,  0.0000,  0.0000)
  34 Cu     2.614328    1.850500   19.956001    ( 0.0000,  0.0000,  0.0000)
  35 Cu     4.353429    0.000000   19.376824    ( 0.0000,  0.0000,  0.0000)
  36 Cu     6.714757    0.000000   20.545229    ( 0.0000,  0.0000,  0.0000)
  37 Cu     4.954821    1.850500   21.124229    ( 0.0000,  0.0000,  0.0000)
  38 Cu    10.806616    1.850500   21.124229    ( 0.0000,  0.0000,  0.0000)
  39 Cu     0.862962    0.000000   20.545229    ( 0.0000,  0.0000,  0.0000)
  40 Cu     3.139108    0.000000   21.765414    ( 0.0000,  0.0000,  0.0000)
  41 Cu     1.417803    1.850500   22.316250    ( 0.0000,  0.0000,  0.0000)
  42 Cu     7.269598    1.850500   22.316250    ( 0.0000,  0.0000,  0.0000)
  43 Cu     8.990902    0.000000   21.765414    ( 0.0000,  0.0000,  0.0000)
  44 Cu    11.386237    0.000000   22.837606    ( 0.0000,  0.0000,  0.0000)
  45 Cu     9.655502    1.850500   23.356329    ( 0.0000,  0.0000,  0.0000)
  46 Cu     3.803707    1.850500   23.356329    ( 0.0000,  0.0000,  0.0000)
  47 Cu     5.534442    0.000000   22.837606    ( 0.0000,  0.0000,  0.0000)
  48 Cu     3.153037    3.701000   10.102759    ( 0.0000,  0.0000,  0.0000)
  49 Cu     1.422299    5.551500   10.621534    ( 0.0000,  0.0000,  0.0000)
  50 Cu     7.274093    5.551500   10.621534    ( 0.0000,  0.0000,  0.0000)
  51 Cu     9.004832    3.701000   10.102759    ( 0.0000,  0.0000,  0.0000)
  52 Cu    11.390789    3.701000   11.142926    ( 0.0000,  0.0000,  0.0000)
  53 Cu     9.669361    5.551500   11.693891    ( 0.0000,  0.0000,  0.0000)
  54 Cu     3.817566    5.551500   11.693891    ( 0.0000,  0.0000,  0.0000)
  55 Cu     5.538994    3.701000   11.142926    ( 0.0000,  0.0000,  0.0000)
  56 Cu     7.853716    3.701000   12.335087    ( 0.0000,  0.0000,  0.0000)
  57 Cu     6.093707    5.551500   12.913952    ( 0.0000,  0.0000,  0.0000)
  58 Cu     0.241912    5.551500   12.913952    ( 0.0000,  0.0000,  0.0000)
  59 Cu     2.001921    3.701000   12.335087    ( 0.0000,  0.0000,  0.0000)
  60 Cu     4.342398    3.701000   13.503074    ( 0.0000,  0.0000,  0.0000)
  61 Cu     2.603306    5.551500   14.082314    ( 0.0000,  0.0000,  0.0000)
  62 Cu     8.455101    5.551500   14.082314    ( 0.0000,  0.0000,  0.0000)
  63 Cu    10.194193    3.701000   13.503075    ( 0.0000,  0.0000,  0.0000)
  64 Cu     0.852445    3.701000   14.665401    ( 0.0000,  0.0000,  0.0000)
  65 Cu    10.800045    5.551500   15.255647    ( 0.0000,  0.0000,  0.0000)
  66 Cu     4.948250    5.551500   15.255647    ( 0.0000,  0.0000,  0.0000)
  67 Cu     6.704240    3.701000   14.665401    ( 0.0000,  0.0000,  0.0000)
  68 Cu     9.035818    3.701000   15.854649    ( 0.0000,  0.0000,  0.0000)
  69 Cu     7.280694    5.551500   16.439933    ( 0.0000,  0.0000,  0.0000)
  70 Cu     1.428900    5.551500   16.439933    ( 0.0000,  0.0000,  0.0000)
  71 Cu     3.184023    3.701000   15.854649    ( 0.0000,  0.0000,  0.0000)
  72 Cu     5.527833    3.701000   17.019080    ( 0.0000,  0.0000,  0.0000)
  73 Cu     3.772708    5.551500   17.604333    ( 0.0000,  0.0000,  0.0000)
  74 Cu     9.624503    5.551500   17.604333    ( 0.0000,  0.0000,  0.0000)
  75 Cu    11.379628    3.701000   17.019081    ( 0.0000,  0.0000,  0.0000)
  76 Cu     2.008456    3.701000   18.203308    ( 0.0000,  0.0000,  0.0000)
  77 Cu     0.252496    5.551500   18.793635    ( 0.0000,  0.0000,  0.0000)
  78 Cu     6.104291    5.551500   18.793635    ( 0.0000,  0.0000,  0.0000)
  79 Cu     7.860251    3.701000   18.203308    ( 0.0000,  0.0000,  0.0000)
  80 Cu    10.205224    3.701000   19.376824    ( 0.0000,  0.0000,  0.0000)
  81 Cu     8.466123    5.551500   19.956001    ( 0.0000,  0.0000,  0.0000)
  82 Cu     2.614328    5.551500   19.956001    ( 0.0000,  0.0000,  0.0000)
  83 Cu     4.353429    3.701000   19.376824    ( 0.0000,  0.0000,  0.0000)
  84 Cu     6.714757    3.701000   20.545229    ( 0.0000,  0.0000,  0.0000)
  85 Cu     4.954821    5.551500   21.124229    ( 0.0000,  0.0000,  0.0000)
  86 Cu    10.806616    5.551500   21.124229    ( 0.0000,  0.0000,  0.0000)
  87 Cu     0.862962    3.701000   20.545229    ( 0.0000,  0.0000,  0.0000)
  88 Cu     3.139107    3.701000   21.765414    ( 0.0000,  0.0000,  0.0000)
  89 Cu     1.417803    5.551500   22.316250    ( 0.0000,  0.0000,  0.0000)
  90 Cu     7.269598    5.551500   22.316250    ( 0.0000,  0.0000,  0.0000)
  91 Cu     8.990903    3.701000   21.765414    ( 0.0000,  0.0000,  0.0000)
  92 Cu    11.386237    3.701000   22.837606    ( 0.0000,  0.0000,  0.0000)
  93 Cu     9.655502    5.551500   23.356329    ( 0.0000,  0.0000,  0.0000)
  94 Cu     3.803707    5.551500   23.356329    ( 0.0000,  0.0000,  0.0000)
  95 Cu     5.534442    3.701000   22.837606    ( 0.0000,  0.0000,  0.0000)

Unit cell:
           periodic     x           y           z      points  spacing
  1. axis:    yes   11.703590    0.000000    0.000000    70     0.1672
  2. axis:    yes    0.000000    7.402000    0.000000    42     0.1762
  3. axis:    no     0.000000    0.000000   33.459128   192     0.1743

  Lengths:  11.703590   7.402000  33.459128
  Angles:   90.000000  90.000000  90.000000

Effective grid spacing dv^(1/3) = 0.1725

                     log10-error:    total        iterations:
           time      wfs    density  energy       fermi  poisson
iter:   1  00:29:50  -2.95   +inf  -7266.352807    3             
iter:   2  00:31:34  -3.86  -2.77  -7266.285348    3             
iter:   3  00:33:18  -4.15  -2.88  -7266.265250    3             
iter:   4  00:35:02  -4.29  -2.93  -7266.208518    3             
iter:   5  00:36:45  -4.40  -3.22  -7266.202583    3             
iter:   6  00:38:28  -4.80  -3.55  -7266.199704    3             
iter:   7  00:40:12  -5.85  -3.90  -7266.199922    2             
iter:   8  00:41:56  -4.95  -3.92  -7266.199809    2             
iter:   9  00:43:40  -6.77  -4.15  -7266.199543    2             
iter:  10  00:45:23  -5.72  -4.29  -7266.199112    2             
iter:  11  00:47:06  -6.68  -4.47  -7266.199248    2             
iter:  12  00:48:50  -6.35  -4.39  -7266.199174    2             
iter:  13  00:50:33  -7.53  -4.66  -7266.199152    2             

Converged after 13 iterations.

Dipole moment: (22.093401, 0.000000, 0.000222) |e|*Ang

Energy contributions relative to reference atoms: (reference = -4322059.376747)

Kinetic:       +662.420898
Potential:     -744.855438
External:        +0.000000
XC:            -7181.923871
Entropy (-ST):   -0.939876
Local:           -1.370803
--------------------------
Free energy:   -7266.669089
Extrapolated:  -7266.199152

Fermi level: 0.35132

Showing only first 2 kpts
 Kpt  Band  Eigenvalues  Occupancy
  0   526      0.07983    0.46895
  0   527      0.17341    0.42779
  0   528      0.18249    0.42200
  0   529      0.19877    0.41067

  1   526      0.45791    0.12809
  1   527      0.46240    0.12386
  1   528      0.46923    0.11760
  1   529      0.51101    0.08421


No gap

Forces in eV/Ang:
  0 Cu   -0.02288    0.00000   -0.01764
  1 Cu    0.02168   -0.00000    0.01839
  2 Cu    0.02168    0.00000    0.01839
  3 Cu   -0.02288    0.00000   -0.01764
  4 Cu    0.00094    0.00000   -0.01561
  5 Cu   -0.04003    0.00000    0.01789
  6 Cu   -0.04003    0.00000    0.01789
  7 Cu    0.00094    0.00000   -0.01561
  8 Cu    0.01310    0.00000   -0.00432
  9 Cu    0.00204    0.00000    0.02221
 10 Cu    0.00204   -0.00000    0.02221
 11 Cu    0.01310    0.00000   -0.00432
 12 Cu    0.01945    0.00000   -0.00847
 13 Cu    0.00198    0.00000    0.01863
 14 Cu    0.00198    0.00000    0.01863
 15 Cu    0.01945    0.00000   -0.00847
 16 Cu   -0.02249    0.00000    0.02956
 17 Cu   -0.01340   -0.00000    0.00455
 18 Cu   -0.01340   -0.00000    0.00455
 19 Cu   -0.02249    0.00000    0.02956
 20 Cu    0.00417    0.00000   -0.01109
 21 Cu    0.00401   -0.00000   -0.00491
 22 Cu    0.00401   -0.00000   -0.00491
 23 Cu    0.00417    0.00000   -0.01109
 24 Cu   -0.00381    0.00000    0.00448
 25 Cu   -0.00360    0.00000    0.01093
 26 Cu   -0.00360    0.00000    0.01093
 27 Cu   -0.00381    0.00000    0.00448
 28 Cu    0.01400    0.00000   -0.00432
 29 Cu    0.02262   -0.00000   -0.02943
 30 Cu    0.02262   -0.00000   -0.02943
 31 Cu    0.01400    0.00000   -0.00432
 32 Cu   -0.00172    0.00000   -0.01876
 33 Cu   -0.01904    0.00000    0.00846
 34 Cu   -0.01904    0.00000    0.00846
 35 Cu   -0.00172    0.00000   -0.01875
 36 Cu   -0.00151    0.00000   -0.02264
 37 Cu   -0.01277    0.00000    0.00306
 38 Cu   -0.01277   -0.00000    0.00306
 39 Cu   -0.00151    0.00000   -0.02264
 40 Cu    0.03968    0.00000   -0.01880
[...]
 |    |                            |  
 |    |                            |  
 |    |                            |  
 |    .----------------------------.  
 |   /                            /   
 |  /                            /    
 | /                            /     
 |/                            /      
 *----------------------------*       

Positions:
   0 Cu     3.152276    0.000000   10.098118    ( 0.0000,  0.0000,  0.0000)
   1 Cu     1.424440    1.850500   10.621846    ( 0.0000,  0.0000,  0.0000)
   2 Cu     7.276235    1.850500   10.621846    ( 0.0000,  0.0000,  0.0000)
   3 Cu     9.004071    0.000000   10.098118    ( 0.0000,  0.0000,  0.0000)
   4 Cu    11.390366    0.000000   11.142605    ( 0.0000,  0.0000,  0.0000)
   5 Cu     9.664442    1.850500   11.697166    ( 0.0000,  0.0000,  0.0000)
   6 Cu     3.812647    1.850500   11.697166    ( 0.0000,  0.0000,  0.0000)
   7 Cu     5.538572    0.000000   11.142605    ( 0.0000,  0.0000,  0.0000)
   8 Cu     7.855266    0.000000   12.334565    ( 0.0000,  0.0000,  0.0000)
   9 Cu     6.094506    1.850500   12.916107    ( 0.0000,  0.0000,  0.0000)
  10 Cu     0.242711    1.850500   12.916107    ( 0.0000,  0.0000,  0.0000)
  11 Cu     2.003471    0.000000   12.334565    ( 0.0000,  0.0000,  0.0000)
  12 Cu     4.344468    0.000000   13.502767    ( 0.0000,  0.0000,  0.0000)
  13 Cu     2.603356    1.850500   14.084426    ( 0.0000,  0.0000,  0.0000)
  14 Cu     8.455151    1.850500   14.084426    ( 0.0000,  0.0000,  0.0000)
  15 Cu    10.196263    0.000000   13.502766    ( 0.0000,  0.0000,  0.0000)
  16 Cu     0.850347    0.000000   14.668416    ( 0.0000,  0.0000,  0.0000)
  17 Cu    10.798721    1.850500   15.256414    ( 0.0000,  0.0000,  0.0000)
  18 Cu     4.946927    1.850500   15.256414    ( 0.0000,  0.0000,  0.0000)
  19 Cu     6.702142    0.000000   14.668416    ( 0.0000,  0.0000,  0.0000)
  20 Cu     9.036219    0.000000   15.853686    ( 0.0000,  0.0000,  0.0000)
  21 Cu     7.281076    1.850500   16.439438    ( 0.0000,  0.0000,  0.0000)
  22 Cu     1.429281    1.850500   16.439438    ( 0.0000,  0.0000,  0.0000)
  23 Cu     3.184424    0.000000   15.853686    ( 0.0000,  0.0000,  0.0000)
  24 Cu     5.527458    0.000000   17.019546    ( 0.0000,  0.0000,  0.0000)
  25 Cu     3.772344    1.850500   17.605291    ( 0.0000,  0.0000,  0.0000)
  26 Cu     9.624139    1.850500   17.605291    ( 0.0000,  0.0000,  0.0000)
  27 Cu    11.379253    0.000000   17.019546    ( 0.0000,  0.0000,  0.0000)
  28 Cu     2.009820    0.000000   18.202569    ( 0.0000,  0.0000,  0.0000)
  29 Cu     0.254596    1.850500   18.790636    ( 0.0000,  0.0000,  0.0000)
  30 Cu     6.106391    1.850500   18.790636    ( 0.0000,  0.0000,  0.0000)
  31 Cu     7.861615    0.000000   18.202569    ( 0.0000,  0.0000,  0.0000)
  32 Cu    10.205185    0.000000   19.374703    ( 0.0000,  0.0000,  0.0000)
  33 Cu     8.464076    1.850500   19.956312    ( 0.0000,  0.0000,  0.0000)
  34 Cu     2.612282    1.850500   19.956312    ( 0.0000,  0.0000,  0.0000)
  35 Cu     4.353391    0.000000   19.374702    ( 0.0000,  0.0000,  0.0000)
  36 Cu     6.713994    0.000000   20.543038    ( 0.0000,  0.0000,  0.0000)
  37 Cu     4.953288    1.850500   21.124640    ( 0.0000,  0.0000,  0.0000)
  38 Cu    10.805083    1.850500   21.124640    ( 0.0000,  0.0000,  0.0000)
  39 Cu     0.862199    0.000000   20.543038    ( 0.0000,  0.0000,  0.0000)
  40 Cu     3.143991    0.000000   21.762057    ( 0.0000,  0.0000,  0.0000)
  41 Cu     1.418204    1.850500   22.316554    ( 0.0000,  0.0000,  0.0000)
  42 Cu     7.269999    1.850500   22.316554    ( 0.0000,  0.0000,  0.0000)
  43 Cu     8.995786    0.000000   21.762057    ( 0.0000,  0.0000,  0.0000)
  44 Cu    11.384144    0.000000   22.837302    ( 0.0000,  0.0000,  0.0000)
  45 Cu     9.656225    1.850500   23.361011    ( 0.0000,  0.0000,  0.0000)
  46 Cu     3.804431    1.850500   23.361011    ( 0.0000,  0.0000,  0.0000)
  47 Cu     5.532349    0.000000   22.837302    ( 0.0000,  0.0000,  0.0000)
  48 Cu     3.152276    3.701000   10.098118    ( 0.0000,  0.0000,  0.0000)
  49 Cu     1.424440    5.551500   10.621846    ( 0.0000,  0.0000,  0.0000)
  50 Cu     7.276235    5.551500   10.621846    ( 0.0000,  0.0000,  0.0000)
  51 Cu     9.004071    3.701000   10.098118    ( 0.0000,  0.0000,  0.0000)
  52 Cu    11.390367    3.701000   11.142605    ( 0.0000,  0.0000,  0.0000)
  53 Cu     9.664442    5.551500   11.697166    ( 0.0000,  0.0000,  0.0000)
  54 Cu     3.812647    5.551500   11.697166    ( 0.0000,  0.0000,  0.0000)
  55 Cu     5.538572    3.701000   11.142605    ( 0.0000,  0.0000,  0.0000)
  56 Cu     7.855266    3.701000   12.334565    ( 0.0000,  0.0000,  0.0000)
  57 Cu     6.094506    5.551500   12.916107    ( 0.0000,  0.0000,  0.0000)
  58 Cu     0.242711    5.551500   12.916107    ( 0.0000,  0.0000,  0.0000)
  59 Cu     2.003471    3.701000   12.334565    ( 0.0000,  0.0000,  0.0000)
  60 Cu     4.344468    3.701000   13.502766    ( 0.0000,  0.0000,  0.0000)
  61 Cu     2.603356    5.551500   14.084426    ( 0.0000,  0.0000,  0.0000)
  62 Cu     8.455151    5.551500   14.084426    ( 0.0000,  0.0000,  0.0000)
  63 Cu    10.196263    3.701000   13.502766    ( 0.0000,  0.0000,  0.0000)
  64 Cu     0.850347    3.701000   14.668416    ( 0.0000,  0.0000,  0.0000)
  65 Cu    10.798721    5.551500   15.256414    ( 0.0000,  0.0000,  0.0000)
  66 Cu     4.946927    5.551500   15.256414    ( 0.0000,  0.0000,  0.0000)
  67 Cu     6.702142    3.701000   14.668416    ( 0.0000,  0.0000,  0.0000)
  68 Cu     9.036219    3.701000   15.853686    ( 0.0000,  0.0000,  0.0000)
  69 Cu     7.281076    5.551500   16.439438    ( 0.0000,  0.0000,  0.0000)
  70 Cu     1.429281    5.551500   16.439438    ( 0.0000,  0.0000,  0.0000)
  71 Cu     3.184424    3.701000   15.853686    ( 0.0000,  0.0000,  0.0000)
  72 Cu     5.527458    3.701000   17.019546    ( 0.0000,  0.0000,  0.0000)
  73 Cu     3.772344    5.551500   17.605291    ( 0.0000,  0.0000,  0.0000)
  74 Cu     9.624139    5.551500   17.605291    ( 0.0000,  0.0000,  0.0000)
  75 Cu    11.379253    3.701000   17.019546    ( 0.0000,  0.0000,  0.0000)
  76 Cu     2.009820    3.701000   18.202569    ( 0.0000,  0.0000,  0.0000)
  77 Cu     0.254596    5.551500   18.790636    ( 0.0000,  0.0000,  0.0000)
  78 Cu     6.106391    5.551500   18.790636    ( 0.0000,  0.0000,  0.0000)
  79 Cu     7.861615    3.701000   18.202569    ( 0.0000,  0.0000,  0.0000)
  80 Cu    10.205185    3.701000   19.374702    ( 0.0000,  0.0000,  0.0000)
  81 Cu     8.464076    5.551500   19.956312    ( 0.0000,  0.0000,  0.0000)
  82 Cu     2.612282    5.551500   19.956312    ( 0.0000,  0.0000,  0.0000)
  83 Cu     4.353391    3.701000   19.374702    ( 0.0000,  0.0000,  0.0000)
  84 Cu     6.713994    3.701000   20.543038    ( 0.0000,  0.0000,  0.0000)
  85 Cu     4.953288    5.551500   21.124640    ( 0.0000,  0.0000,  0.0000)
  86 Cu    10.805083    5.551500   21.124640    ( 0.0000,  0.0000,  0.0000)
  87 Cu     0.862199    3.701000   20.543038    ( 0.0000,  0.0000,  0.0000)
  88 Cu     3.143991    3.701000   21.762057    ( 0.0000,  0.0000,  0.0000)
  89 Cu     1.418204    5.551500   22.316554    ( 0.0000,  0.0000,  0.0000)
  90 Cu     7.269999    5.551500   22.316554    ( 0.0000,  0.0000,  0.0000)
  91 Cu     8.995786    3.701000   21.762057    ( 0.0000,  0.0000,  0.0000)
  92 Cu    11.384144    3.701000   22.837302    ( 0.0000,  0.0000,  0.0000)
  93 Cu     9.656225    5.551500   23.361011    ( 0.0000,  0.0000,  0.0000)
  94 Cu     3.804431    5.551500   23.361011    ( 0.0000,  0.0000,  0.0000)
  95 Cu     5.532349    3.701000   22.837302    ( 0.0000,  0.0000,  0.0000)

Unit cell:
           periodic     x           y           z      points  spacing
  1. axis:    yes   11.703590    0.000000    0.000000    70     0.1672
  2. axis:    yes    0.000000    7.402000    0.000000    42     0.1762
  3. axis:    no     0.000000    0.000000   33.459128   192     0.1743

  Lengths:  11.703590   7.402000  33.459128
  Angles:   90.000000  90.000000  90.000000

Effective grid spacing dv^(1/3) = 0.1725

                     log10-error:    total        iterations:
           time      wfs    density  energy       fermi  poisson
iter:   1  00:52:47  -3.57   +inf  -7266.310274    3             
iter:   2  00:54:31  -3.77  -2.80  -7266.217895    3             
iter:   3  00:56:15  -5.14  -3.35  -7266.208496    3             
iter:   4  00:57:58  -5.62  -3.43  -7266.204668    2             
iter:   5  00:59:42  -5.22  -3.57  -7266.202974    3             
iter:   6  01:01:25  -6.04  -3.96  -7266.202902    2             
iter:   7  01:03:08  -6.18  -4.12  -7266.202864    2             
iter:   8  01:04:52  -7.41  -4.27  -7266.202814    2             

Converged after 8 iterations.

Dipole moment: (21.907728, 0.000000, 0.000122) |e|*Ang

Energy contributions relative to reference atoms: (reference = -4322059.376747)

Kinetic:       +662.530329
Potential:     -745.017168
External:        +0.000000
XC:            -7181.879496
Entropy (-ST):   -0.940604
Local:           -1.366178
--------------------------
Free energy:   -7266.673116
Extrapolated:  -7266.202814

Fermi level: 0.35147

Showing only first 2 kpts
 Kpt  Band  Eigenvalues  Occupancy
  0   526      0.07969    0.46903
  0   527      0.17493    0.42694
  0   528      0.18266    0.42198
  0   529      0.19808    0.41129

  1   526      0.45824    0.12792
  1   527      0.46395    0.12256
  1   528      0.46925    0.11773
  1   529      0.51119    0.08419


No gap

Forces in eV/Ang:
  0 Cu   -0.00963    0.00000    0.00655
  1 Cu   -0.00721   -0.00000    0.01929
  2 Cu   -0.00721   -0.00000    0.01929
  3 Cu   -0.00963    0.00000    0.00655
  4 Cu    0.00153    0.00000   -0.01667
  5 Cu    0.00104   -0.00000   -0.00244
  6 Cu    0.00104   -0.00000   -0.00244
  7 Cu    0.00153    0.00000   -0.01667
  8 Cu   -0.00625    0.00000    0.00056
  9 Cu   -0.00174   -0.00000   -0.00474
 10 Cu   -0.00174   -0.00000   -0.00474
 11 Cu   -0.00625    0.00000    0.00056
 12 Cu    0.00928    0.00000   -0.01246
 13 Cu   -0.00408    0.00000    0.00450
 14 Cu   -0.00408   -0.00000    0.00450
 15 Cu    0.00928    0.00000   -0.01246
 16 Cu   -0.00472    0.00000    0.00861
 17 Cu   -0.00492    0.00000    0.00516
 18 Cu   -0.00492    0.00000    0.00516
 19 Cu   -0.00472    0.00000    0.00861
 20 Cu   -0.00028    0.00000   -0.00243
 21 Cu    0.00233    0.00000   -0.00314
 22 Cu    0.00233   -0.00000   -0.00314
 23 Cu   -0.00028    0.00000   -0.00243
 24 Cu   -0.00186    0.00000    0.00363
 25 Cu    0.00053    0.00000    0.00273
 26 Cu    0.00053    0.00000    0.00273
 27 Cu   -0.00186    0.00000    0.00363
 28 Cu    0.00528    0.00000   -0.00491
 29 Cu    0.00514   -0.00000   -0.00856
 30 Cu    0.00514   -0.00000   -0.00856
 31 Cu    0.00528    0.00000   -0.00490
 32 Cu    0.00439    0.00000   -0.00461
 33 Cu   -0.00897   -0.00000    0.01223
 34 Cu   -0.00897   -0.00000    0.01223
 35 Cu    0.00439    0.00000   -0.00461
 36 Cu    0.00192    0.00000    0.00427
 37 Cu    0.00630   -0.00000   -0.00085
 38 Cu    0.00630    0.00000   -0.00085
 39 Cu    0.00192    0.00000    0.00427
 40 Cu   -0.00073    0.00000    0.00213
 41 Cu   -0.00151    0.00000    0.01654
 42 Cu   -0.00151   -0.00000    0.01654
 43 Cu   -0.00073    0.00000    0.00213
 44 Cu    0.00731    0.00000   -0.01938
 45 Cu    0.00961    0.00000   -0.00662
 46 Cu    0.00961    0.00000   -0.00662
 47 Cu    0.00731    0.00000   -0.01938
 48 Cu   -0.00963    0.00000    0.00655
 49 Cu   -0.00721    0.00000    0.01929
 50 Cu   -0.00721    0.00000    0.01929
 51 Cu   -0.00963    0.00000    0.00655
 52 Cu    0.00153    0.00000   -0.01667
 53 Cu    0.00104    0.00000   -0.00244
 54 Cu    0.00104    0.00000   -0.00244
 55 Cu    0.00153    0.00000   -0.01667
 56 Cu   -0.00625    0.00000    0.00056
 57 Cu   -0.00174    0.00000   -0.00474
 58 Cu   -0.00174    0.00000   -0.00474
 59 Cu   -0.00625    0.00000    0.00056
 60 Cu    0.00928    0.00000   -0.01246
 61 Cu   -0.00408   -0.00000    0.00450
 62 Cu   -0.00408    0.00000    0.00450
 63 Cu    0.00928    0.00000   -0.01246
 64 Cu   -0.00472    0.00000    0.00861
 65 Cu   -0.00492   -0.00000    0.00516
 66 Cu   -0.00492   -0.00000    0.00516
 67 Cu   -0.00472    0.00000    0.00861
 68 Cu   -0.00028    0.00000   -0.00243
 69 Cu    0.00233   -0.00000   -0.00314
 70 Cu    0.00233    0.00000   -0.00314
 71 Cu   -0.00028    0.00000   -0.00243
 72 Cu   -0.00186    0.00000    0.00363
 73 Cu    0.00053   -0.00000    0.00273
 74 Cu    0.00053   -0.00000    0.00273
 75 Cu   -0.00186    0.00000    0.00363
 76 Cu    0.00528    0.00000   -0.00490
 77 Cu    0.00514    0.00000   -0.00856
 78 Cu    0.00514    0.00000   -0.00856
 79 Cu    0.00528    0.00000   -0.00490
 80 Cu    0.00439    0.00000   -0.00461
 81 Cu   -0.00897    0.00000    0.01223
 82 Cu   -0.00897    0.00000    0.01223
 83 Cu    0.00439    0.00000   -0.00461
 84 Cu    0.00192    0.00000    0.00427
 85 Cu    0.00630    0.00000   -0.00085
 86 Cu    0.00630   -0.00000   -0.00085
 87 Cu    0.00192    0.00000    0.00427
 88 Cu   -0.00073    0.00000    0.00213
 89 Cu   -0.00151   -0.00000    0.01654
 90 Cu   -0.00151    0.00000    0.01654
 91 Cu   -0.00073    0.00000    0.00213
 92 Cu    0.00731    0.00000   -0.01938
 93 Cu    0.00961   -0.00000   -0.00662
 94 Cu    0.00961   -0.00000   -0.00662
 95 Cu    0.00731    0.00000   -0.01938

Timing:                                      incl.     excl.
-------------------------------------------------------------------
Density initialized from wave functions:    46.690    46.379   0.5% |
 Symmetrize density:                         0.311     0.311   0.0% |
Forces:                                    109.414   109.414   1.1% |
Hamiltonian:                               103.072     0.195   0.0% |
 Atomic:                                     1.803     0.006   0.0% |
  XC Correction:                             1.797     1.797   0.0% |
 Calculate atomic Hamiltonians:              7.257     7.257   0.1% |
 Communicate:                                1.041     1.041   0.0% |
 Initialize Hamiltonian:                     0.001     0.001   0.0% |
 Poisson:                                    0.014     0.014   0.0% |
 XC 3D grid:                                92.762     9.215   0.1% |
  VdW-DF integral:                          83.547     0.251   0.0% |
   Convolution:                              2.624     2.624   0.0% |
   FFT:                                      1.384     1.384   0.0% |
   gather:                                  53.180    53.180   0.5% |
   hmm1:                                     1.285     1.285   0.0% |
   hmm2:                                     1.213     1.213   0.0% |
   iFFT:                                     2.147     2.147   0.0% |
   potential:                               17.608     0.209   0.0% |
    collect:                                 0.874     0.874   0.0% |
    p1:                                      5.916     5.916   0.1% |
    p2:                                      2.204     2.204   0.0% |
    sum:                                     8.405     8.405   0.1% |
   splines:                                  3.856     3.856   0.0% |
LCAO initialization:                        96.958     0.124   0.0% |
 LCAO eigensolver:                           9.029     0.010   0.0% |
  Calculate projections:                     0.000     0.000   0.0% |
  DenseAtomicCorrection:                     0.000     0.000   0.0% |
  Distribute overlap matrix:                 5.098     5.098   0.1% |
  Orbital Layouts:                           3.721     3.721   0.0% |
  Potential matrix:                          0.032     0.032   0.0% |
  Sum over cells:                            0.168     0.168   0.0% |
 LCAO to grid:                              85.947    85.947   0.9% |
 Set positions (LCAO WFS):                   1.857     1.413   0.0% |
  Basic WFS set positions:                   0.004     0.004   0.0% |
  Basis functions set positions:             0.000     0.000   0.0% |
  P tci:                                     0.000     0.000   0.0% |
  ST tci:                                    0.293     0.293   0.0% |
  mktci:                                     0.146     0.146   0.0% |
PWDescriptor:                                0.084     0.084   0.0% |
Redistribute:                                0.003     0.003   0.0% |
SCF-cycle:                                9625.945  1464.133  14.6% |-----|
 Davidson:                                5961.908  1080.902  10.8% |---|
  Apply H:                                 802.598   798.039   8.0% |--|
   HMM T:                                    4.559     4.559   0.0% |
  Subspace diag:                          1107.005     0.013   0.0% |
   calc_h_matrix:                          894.242    93.924   0.9% |
    Apply H:                               800.318   795.758   7.9% |--|
     HMM T:                                  4.559     4.559   0.0% |
   diagonalize:                             24.462    24.462   0.2% |
   rotate_psi:                             188.287   188.287   1.9% ||
  calc. matrices:                         2263.897   665.549   6.6% |--|
   Apply H:                               1598.348  1589.224  15.9% |-----|
    HMM T:                                   9.124     9.124   0.1% |
  diagonalize:                             326.853   326.853   3.3% ||
  rotate_psi:                              380.652   380.652   3.8% |-|
 Density:                                  749.040     0.002   0.0% |
  Atomic density matrices:                   2.586     2.586   0.0% |
  Mix:                                     149.787   149.787   1.5% ||
  Multipole moments:                         0.044     0.044   0.0% |
  Pseudo density:                          596.621   590.859   5.9% |-|
   Symmetrize density:                       5.762     5.762   0.1% |
 Hamiltonian:                             1423.992     3.217   0.0% |
  Atomic:                                   26.152     0.086   0.0% |
   XC Correction:                           26.066    26.066   0.3% |
  Calculate atomic Hamiltonians:           103.313   103.313   1.0% |
  Communicate:                              20.094    20.094   0.2% |
  Poisson:                                   0.237     0.237   0.0% |
  XC 3D grid:                             1270.980   138.720   1.4% ||
   VdW-DF integral:                       1132.260     3.674   0.0% |
    Convolution:                            39.193    39.193   0.4% |
    FFT:                                    22.132    22.132   0.2% |
    gather:                                738.578   738.578   7.4% |--|
    hmm1:                                   20.643    20.643   0.2% |
    hmm2:                                   20.171    20.171   0.2% |
    iFFT:                                   30.882    30.882   0.3% |
    potential:                             256.987     2.825   0.0% |
     collect:                               12.502    12.502   0.1% |
     p1:                                    87.080    87.080   0.9% |
     p2:                                    32.388    32.388   0.3% |
     sum:                                  122.191   122.191   1.2% |
    splines:                                 0.001     0.001   0.0% |
 Orthonormalize:                            26.872     0.002   0.0% |
  calc_s_matrix:                             3.022     3.022   0.0% |
  inverse-cholesky:                          0.821     0.821   0.0% |
  projections:                              16.877    16.877   0.2% |
  rotate_psi_s:                              6.150     6.150   0.1% |
Set symmetry:                                0.001     0.001   0.0% |
Other:                                      37.464    37.464   0.4% |
-------------------------------------------------------------------
Total:                                             10019.631 100.0%

Memory usage: 1.83 GiB
Date: Sun Jun  5 01:05:11 2022
