
  ___ ___ ___ _ _ _  
 |   |   |_  | | | | 
 | | | | | . | | | | 
 |__ |  _|___|_____|  22.1.0
 |___|_|             

User:   thorkong@node048.cluster
Date:   Mon Oct 17 14:30:18 2022
Arch:   x86_64
Pid:    39479
Python: 3.10.5
gpaw:   /groups/kemi/thorkong/miniconda3/envs/gpaw22/lib/python3.10/site-packages/gpaw
_gpaw:  /groups/kemi/thorkong/miniconda3/envs/gpaw22/lib/python3.10/site-packages/
        _gpaw.cpython-310-x86_64-linux-gnu.so
ase:    /groups/kemi/thorkong/miniconda3/envs/gpaw22/lib/python3.10/site-packages/ase (version 3.22.1)
numpy:  /groups/kemi/thorkong/miniconda3/envs/gpaw22/lib/python3.10/site-packages/numpy (version 1.23.0)
scipy:  /groups/kemi/thorkong/miniconda3/envs/gpaw22/lib/python3.10/site-packages/scipy (version 1.8.1)
libxc:  5.2.3
units:  Angstrom and eV
cores: 32
OpenMP: True
OMP_NUM_THREADS: 1

Input parameters:
  basis: dzp
  kpts: [4 4 1]
  mode: {ecut: 600.0,
         name: pw}
  xc: BEEF-vdW

System changes: positions, numbers, cell, pbc, initial_charges, initial_magmoms 

Initialize ...

Cu-setup:
  name: Copper
  id: f1c4d45d90492f1bbfdcb091e8418fdf
  Z: 29.0
  valence: 11
  core: 18
  charge: 0.0
  file: /groups/kemi/thorkong/miniconda3/envs/gpaw22/share/gpaw/Cu.PBE.gz
  compensation charges: gauss, rc=0.33, lmax=2
  cutoffs: 2.06(filt), 2.43(core),
  valence states:
                energy  radius
    4s(1.00)    -4.609   1.164
    4p(0.00)    -0.698   1.164
    3d(10.00)    -5.039   1.058
    *s          22.603   1.164
    *p          26.513   1.164
    *d          22.172   1.058

  LCAO basis set for Cu:
    Name: dzp
    File: /groups/kemi/thorkong/miniconda3/envs/gpaw22/share/gpaw/Cu.dzp.basis.gz
    Number of radial functions: 5
    Number of spherical harmonics: 15
      l=0, rc=8.9688 Bohr: 4s-sz confined orbital
      l=2, rc=5.1719 Bohr: 3d-sz confined orbital
      l=0, rc=5.3281 Bohr: 4s-dz split-valence wave
      l=2, rc=3.1406 Bohr: 3d-dz split-valence wave
      l=1, rc=8.9688 Bohr: p-type Gaussian polarization

Cl-setup:
  name: Chlorine
  id: 726897f06f34e53cf8e33b5885a02604
  Z: 17.0
  valence: 7
  core: 10
  charge: 0.0
  file: /groups/kemi/thorkong/miniconda3/envs/gpaw22/share/gpaw/Cl.PBE.gz
  compensation charges: gauss, rc=0.25, lmax=2
  cutoffs: 1.40(filt), 1.49(core),
  valence states:
                energy  radius
    3s(2.00)   -20.689   0.794
    3p(5.00)    -8.594   0.794
    *s           6.523   0.794
    *p          18.617   0.794
    *d           0.000   0.794

  LCAO basis set for Cl:
    Name: dzp
    File: /groups/kemi/thorkong/miniconda3/envs/gpaw22/share/gpaw/Cl.dzp.basis.gz
    Number of radial functions: 5
    Number of spherical harmonics: 13
      l=0, rc=5.1719 Bohr: 3s-sz confined orbital
      l=1, rc=6.2656 Bohr: 3p-sz confined orbital
      l=0, rc=2.8281 Bohr: 3s-dz split-valence wave
      l=1, rc=3.5156 Bohr: 3p-dz split-valence wave
      l=2, rc=6.2656 Bohr: d-type Gaussian polarization

Reference energy: -2657147.488543

Spin-paired calculation

Convergence criteria:
 Maximum [total energy] change in last 3 cyles: 0.0005 eV / electron
 Maximum integral of absolute [dens]ity change: 0.0001 electrons / valence electron
 Maximum integral of absolute [eigenst]ate change: 4e-08 eV^2 / valence electron
 Maximum number of scf [iter]ations: 333
 (Square brackets indicate name in SCF output, whereas a 'c' in
 the SCF output indicates the quantity has converged.)

Symmetries present (total): 1

  ( 1  0  0)
  ( 0  1  0)
  ( 0  0  1)

16 k-points: 4 x 4 x 1 Monkhorst-Pack grid
8 k-points in the irreducible part of the Brillouin zone
       k-points in crystal coordinates                weights
   0:     0.12500000   -0.37500000    0.00000000          2/16
   1:     0.12500000   -0.12500000    0.00000000          2/16
   2:     0.12500000    0.12500000    0.00000000          2/16
   3:     0.12500000    0.37500000    0.00000000          2/16
   4:     0.37500000   -0.37500000    0.00000000          2/16
   5:     0.37500000   -0.12500000    0.00000000          2/16
   6:     0.37500000    0.12500000    0.00000000          2/16
   7:     0.37500000    0.37500000    0.00000000          2/16

Wave functions: Plane wave expansion
  Cutoff energy: 600.000 eV
  Number of coefficients (min, max): 54614, 54705
  Pulay-stress correction: 0.000000 eV/Ang^3 (de/decut=0.000000)
  Using FFTW library
  ScaLapack parameters: grid=2x2, blocksize=64
  Wavefunction extrapolation:
    Improved wavefunction reuse through dual PAW basis 

Occupation numbers: Fermi-Dirac: width=0.1000 eV
 

Eigensolver
   Davidson(niter=2) 

Densities:
  Coarse grid: 45*45*175 grid
  Fine grid: 90*90*350 grid
  Total Charge: 0.000000 

Density mixing:
  Method: separate
  Backend: pulay
  Linear mixing parameter: 0.05
  Mixing with 5 old densities
  Damping of long wave oscillations: 50 

Hamiltonian:
  XC and Coulomb potentials evaluated on a 90*90*350 grid
  Using the BEEF-vdW Exchange-Correlation functional
  External potential:
    NoExternalPotential
 

XC parameters: BEEF-vdW with 2 nearest neighbor stencil

Memory estimate:
  Process memory now: 241.39 MiB
  Calculator: 833.66 MiB
    Density: 42.61 MiB
      Arrays: 17.67 MiB
      Localized functions: 18.14 MiB
      Mixer: 6.80 MiB
    Hamiltonian: 12.00 MiB
      Arrays: 11.56 MiB
      XC: 0.00 MiB
      Poisson: 0.00 MiB
      vbar: 0.44 MiB
    Wavefunctions: 779.06 MiB
      Arrays psit_nG: 363.94 MiB
      Eigensolver: 397.14 MiB
      Projections: 2.01 MiB
      Projectors: 2.09 MiB
      PW-descriptor: 13.88 MiB

Total number of cores used: 32
Parallelization over k-points: 8
Domain decomposition: 1 x 1 x 4
                      2 x 2 x 8 (xc only)

Number of atoms: 72
Number of atomic orbitals: 1044
Number of bands in calculation: 436
Number of valence electrons: 720
Bands to converge: occupied

... initialized

Initializing position-dependent things.

Density initialized from atomic densities
Creating initial wave functions:
  436 bands from LCAO basis set

                                              
                                              
                                              
                                              
                     Cl     Cl     Cl         
                                              
                 Cl    Cl     Cl              
            Cl    Cl    CCl   Cu     Cu       
                   Cu     Cu    Cu            
               Cu    Cu     Cu                
                    Cu     Cu    Cu           
                Cu    Cu    Cu                
           Cu    Cu     Cu                    
                Cu     Cu    Cu               
            Cu    Cu     Cu                   
       Cu     Cu        Cu    Cu     Cu       
                   CCu    Cu    Cu            
               Cu    Cu     Cu                
                    Cu     Cu    Cu           
                Cu    Cu    Cu                
           Cu    Cu     Cu                    
                Cu     Cu    Cu               
            Cu    Cu     Cu                   
       Cu     Cu   CCu   Cl     Cl            
              Cl     Cl     Cl                
               Cl                             
         Cl            Cl                     
                                              
                                              
                                              
                                              

Positions:
   0 Cu     2.884162   -0.011729   10.033678    ( 0.0000,  0.0000,  0.0000)
   1 Cu     4.175487    2.207390    9.968025    ( 0.0000,  0.0000,  0.0000)
   2 Cu     0.268779    0.005327   10.035957    ( 0.0000,  0.0000,  0.0000)
   3 Cu     1.563079    2.250160   10.040939    ( 0.0000,  0.0000,  0.0000)
   4 Cu     2.905835    3.013667   12.132731    ( 0.0000,  0.0000,  0.0000)
   5 Cu     1.587256    0.751197   12.155983    ( 0.0000,  0.0000,  0.0000)
   6 Cu     5.501600    3.021336   12.124235    ( 0.0000,  0.0000,  0.0000)
   7 Cu     4.203724    0.772150   12.120007    ( 0.0000,  0.0000,  0.0000)
   8 Cu     5.509809    1.511263   14.273560    ( 0.0000,  0.0000,  0.0000)
   9 Cu     6.817749    3.779201   14.272965    ( 0.0000,  0.0000,  0.0000)
  10 Cu     2.895657    1.507106   14.282845    ( 0.0000,  0.0000,  0.0000)
  11 Cu     4.204745    3.779097   14.275593    ( 0.0000,  0.0000,  0.0000)
  12 Cu     2.898323   -0.006205   16.439255    ( 0.0000,  0.0000,  0.0000)
  13 Cu     4.202828    2.263486   16.411249    ( 0.0000,  0.0000,  0.0000)
  14 Cu     0.271173   -0.001683   16.415015    ( 0.0000,  0.0000,  0.0000)
  15 Cu     1.580207    2.267720   16.418056    ( 0.0000,  0.0000,  0.0000)
  16 Cu     2.898773    3.019517   18.534881    ( 0.0000,  0.0000,  0.0000)
  17 Cu     1.574509    0.759578   18.535562    ( 0.0000,  0.0000,  0.0000)
  18 Cu     5.517461    3.017381   18.557838    ( 0.0000,  0.0000,  0.0000)
  19 Cu     4.218777    0.769327   18.565915    ( 0.0000,  0.0000,  0.0000)
  20 Cu     5.482458    1.472743   20.721328    ( 0.0000,  0.0000,  0.0000)
  21 Cu     6.840691    3.826186   20.718062    ( 0.0000,  0.0000,  0.0000)
  22 Cu     2.872766    1.512688   20.651496    ( 0.0000,  0.0000,  0.0000)
  23 Cu     4.179191    3.794081   20.647081    ( 0.0000,  0.0000,  0.0000)
  24 Cu     5.533098    4.559222    9.954112    ( 0.0000,  0.0000,  0.0000)
  25 Cu     2.867968    4.534051   10.029210    ( 0.0000,  0.0000,  0.0000)
  26 Cu     4.213127    5.276205   12.126541    ( 0.0000,  0.0000,  0.0000)
  27 Cu     6.799507    5.268601   12.115394    ( 0.0000,  0.0000,  0.0000)
  28 Cu     8.121886    6.047639   14.244202    ( 0.0000,  0.0000,  0.0000)
  29 Cu     5.516666    6.046671   14.278211    ( 0.0000,  0.0000,  0.0000)
  30 Cu     5.511110    4.531825   16.410270    ( 0.0000,  0.0000,  0.0000)
  31 Cu     2.888634    4.532926   16.406558    ( 0.0000,  0.0000,  0.0000)
  32 Cu     4.204789    5.283723   18.534523    ( 0.0000,  0.0000,  0.0000)
  33 Cu     6.814487    5.265823   18.565627    ( 0.0000,  0.0000,  0.0000)
  34 Cu     8.131354    6.045561   20.650058    ( 0.0000,  0.0000,  0.0000)
  35 Cu     5.501317    6.065983   20.648502    ( 0.0000,  0.0000,  0.0000)
  36 Cu     5.515639   -0.030915   10.037620    ( 0.0000,  0.0000,  0.0000)
  37 Cu     6.838300    2.241957   10.038361    ( 0.0000,  0.0000,  0.0000)
  38 Cu     8.121401    3.021170   12.150082    ( 0.0000,  0.0000,  0.0000)
  39 Cu     6.815400    0.755845   12.149679    ( 0.0000,  0.0000,  0.0000)
  40 Cu     8.132578    1.510559   14.278234    ( 0.0000,  0.0000,  0.0000)
  41 Cu     9.440817    3.775125   14.268637    ( 0.0000,  0.0000,  0.0000)
  42 Cu     5.504098   -0.004613   16.403245    ( 0.0000,  0.0000,  0.0000)
  43 Cu     6.816730    2.264183   16.407976    ( 0.0000,  0.0000,  0.0000)
  44 Cu     8.113114    3.026556   18.553628    ( 0.0000,  0.0000,  0.0000)
  45 Cu     6.806143    0.763216   18.553497    ( 0.0000,  0.0000,  0.0000)
  46 Cu     8.148557    1.500971   20.654047    ( 0.0000,  0.0000,  0.0000)
  47 Cu     9.453486    3.785452   20.645604    ( 0.0000,  0.0000,  0.0000)
  48 Cu     8.143342    4.522704   10.030314    ( 0.0000,  0.0000,  0.0000)
  49 Cu     9.444142    5.279553   12.148158    ( 0.0000,  0.0000,  0.0000)
  50 Cu    10.750397    6.043904   14.266863    ( 0.0000,  0.0000,  0.0000)
  51 Cu     8.125450    4.536072   16.403731    ( 0.0000,  0.0000,  0.0000)
  52 Cu     9.432612    5.289470   18.528114    ( 0.0000,  0.0000,  0.0000)
  53 Cu    10.748665    6.030225   20.646267    ( 0.0000,  0.0000,  0.0000)
  54 Cl     6.147134    2.664301   22.667231    ( 0.0000,  0.0000,  0.0000)
  55 Cl     4.853098    3.366848    8.014863    ( 0.0000,  0.0000,  0.0000)
  56 Cl    10.101076    4.907838   23.055936    ( 0.0000,  0.0000,  0.0000)
  57 Cl     0.915929    1.127744    7.628448    ( 0.0000,  0.0000,  0.0000)
  58 Cl     8.857645    5.743262    7.623330    ( 0.0000,  0.0000,  0.0000)
  59 Cl     2.077612    0.292715   23.096412    ( 0.0000,  0.0000,  0.0000)
  60 Cl     4.840254    4.930032   23.057792    ( 0.0000,  0.0000,  0.0000)
  61 Cl     6.176970    1.105521    7.627990    ( 0.0000,  0.0000,  0.0000)
  62 Cl     3.525825    5.890548    7.624209    ( 0.0000,  0.0000,  0.0000)
  63 Cl     7.377612    0.192715   23.096412    ( 0.0000,  0.0000,  0.0000)
  64 Cl     3.535671    2.617828   22.668468    ( 0.0000,  0.0000,  0.0000)
  65 Cl     7.796854    2.949642    7.999351    ( 0.0000,  0.0000,  0.0000)
  66 Cl     3.285427    1.026889    7.992637    ( 0.0000,  0.0000,  0.0000)
  67 Cl     7.486022    4.935873   23.094060    ( 0.0000,  0.0000,  0.0000)
  68 Cl     8.801022    2.643212   23.059825    ( 0.0000,  0.0000,  0.0000)
  69 Cl     2.215523    3.392105    7.625075    ( 0.0000,  0.0000,  0.0000)
  70 Cl     6.191735    5.816905    7.623769    ( 0.0000,  0.0000,  0.0000)
  71 Cl     4.727612    0.242715   23.096412    ( 0.0000,  0.0000,  0.0000)

Unit cell:
           periodic     x           y           z      points  spacing
  1. axis:    yes    7.851007    0.000000    0.000000    45     0.1511
  2. axis:    yes    3.925503    6.799171    0.000000    45     0.1511
  3. axis:    yes    0.000000    0.000000   30.683867   175     0.1753

  Lengths:   7.851007   7.851006  30.683867
  Angles:   90.000000  90.000000  60.000001

Effective grid spacing dv^(1/3) = 0.1666

     iter     time        total  log10-change:
                         energy  eigst   dens
iter:   1 14:36:42 -5979.115635
iter:   2 14:37:42 -6453.525680  +2.04  -0.51
iter:   3 14:38:40 -5180.177087  +2.08  -0.48
iter:   4 14:39:36 -6618.372226  +1.56  -0.77
iter:   5 14:40:33 -4933.788872  +0.45  -0.51
iter:   6 14:41:29 -4805.655864  +0.29  -1.05
iter:   7 14:42:31 -4781.411964  -0.59  -1.26
iter:   8 14:43:27 -4735.051096  -1.15  -1.26
iter:   9 14:44:24 -4728.425648  -0.95  -1.45
iter:  10 14:45:34 -4726.369302  -1.66  -1.41
iter:  11 14:46:40 -4740.110326  -1.99  -1.48
iter:  12 14:47:48 -4767.854453  -2.06  -1.45
iter:  13 14:48:45 -4728.680130  -1.94  -1.35
iter:  14 14:49:41 -4769.770327  -1.03  -1.45
iter:  15 14:50:37 -4723.094058  -1.39  -1.19
iter:  16 14:51:33 -4720.722550  -2.86  -1.52
iter:  17 14:52:30 -4716.841469  -2.50  -1.58
iter:  18 14:53:26 -4716.659739  -2.79  -1.66
iter:  19 14:54:22 -4716.830617c -2.78  -1.68
iter:  20 14:55:20 -4716.447573  -2.32  -1.69
iter:  21 14:56:17 -4715.412622  -2.84  -1.84
iter:  22 14:57:13 -4715.013490  -3.55  -2.08
iter:  23 14:58:10 -4714.976185  -3.43  -2.19
iter:  24 14:59:07 -4715.123151c -3.41  -2.35
iter:  25 15:00:03 -4714.888011c -4.00  -2.31
iter:  26 15:01:00 -4714.819444c -3.81  -2.52
iter:  27 15:01:56 -4714.876932c -4.30  -2.65
iter:  28 15:02:53 -4714.816786c -3.72  -2.58
iter:  29 15:03:50 -4714.794862c -4.86  -2.73
iter:  30 15:04:46 -4714.790626c -4.63  -2.91
iter:  31 15:05:42 -4714.788982c -5.15  -3.18
iter:  32 15:06:39 -4714.788948c -5.81  -3.36
iter:  33 15:07:47 -4714.789207c -5.80  -3.40
iter:  34 15:08:56 -4714.788685c -6.14  -3.46
iter:  35 15:09:54 -4714.790413c -5.49  -3.43
iter:  36 15:10:51 -4714.789827c -6.20  -3.46
iter:  37 15:11:55 -4714.789647c -6.46  -3.47
iter:  38 15:12:53 -4714.789192c -6.40  -3.48
iter:  39 15:13:51 -4714.788398c -6.45  -3.70
iter:  40 15:14:49 -4714.787960c -6.58  -4.01c
iter:  41 15:15:46 -4714.788048c -7.54c -4.35c

Converged after 41 iterations.

Dipole moment: (-32.059149, -32.756266, -0.186790) |e|*Ang

Energy contributions relative to reference atoms: (reference = -2657147.488543)

Kinetic:       +694.097416
Potential:     -666.223040
External:        +0.000000
XC:            -4741.388123
Entropy (-ST):   -0.849322
Local:           -0.849641
--------------------------
Free energy:   -4715.212709
Extrapolated:  -4714.788048

Showing only first 2 kpts
 Kpt  Band  Eigenvalues  Occupancy
  0   358      1.79869    1.24854
  0   359      1.80966    1.19643
  0   360      1.85243    0.98514
  0   361      1.87253    0.88516

  1   358      1.54096    1.91255
  1   359      1.84001    1.04722
  1   360      1.89483    0.77700
  1   361      1.95708    0.50846


Fermi level: 1.84946

No gap

Forces in eV/Ang:
  0 Cu   -0.00252   -0.18313    0.66410
  1 Cu    0.16083    0.21447    0.44097
  2 Cu   -0.04769   -0.25807    0.37124
  3 Cu    0.28364    0.09474    0.66032
  4 Cu   -0.06072    0.01791   -0.04801
  5 Cu   -0.03911    0.00782   -0.11250
  6 Cu   -0.00211   -0.03082   -0.09042
  7 Cu    0.01733   -0.06836    0.04571
  8 Cu    0.01309   -0.01061    0.02728
  9 Cu    0.00974    0.00164   -0.02599
 10 Cu    0.00688    0.00185   -0.01272
 11 Cu    0.00610   -0.00085   -0.01976
 12 Cu   -0.01333    0.00040   -0.06150
 13 Cu   -0.00964   -0.00337    0.00033
 14 Cu    0.00250   -0.00713    0.00230
 15 Cu   -0.00526   -0.00497   -0.04614
 16 Cu   -0.03565    0.01856   -0.01811
 17 Cu    0.07203    0.00550    0.12489
 18 Cu   -0.02084    0.01332    0.05234
 19 Cu   -0.05408   -0.04938    0.01528
 20 Cu    0.16419    0.02495   -0.29325
 21 Cu   -0.02923   -0.08379   -0.34539
 22 Cu   -0.00565   -0.10712   -0.18187
 23 Cu    0.16426    0.07259   -0.20101
 24 Cu   -0.04401   -0.12664    0.29319
 25 Cu    0.15086   -0.07769    0.05143
 26 Cu   -0.03362    0.02963   -0.04995
 27 Cu    0.05025    0.07595   -0.08069
 28 Cu    0.01142   -0.01228    0.06576
 29 Cu   -0.00726   -0.01265   -0.00207
 30 Cu    0.00006    0.01052    0.00251
 31 Cu    0.01052    0.01017   -0.03568
 32 Cu   -0.01382   -0.02908    0.12397
 33 Cu    0.01950    0.06877    0.04340
 34 Cu   -0.02031    0.01420   -0.08152
 35 Cu    0.03838   -0.04048   -0.07557
 36 Cu   -0.00262    0.01171    0.12621
 37 Cu   -0.35345   -0.01544    0.60924
 38 Cu    0.03307   -0.00946    0.00019
 39 Cu   -0.00940    0.01226   -0.12626
 40 Cu   -0.01287   -0.01184    0.01620
 41 Cu   -0.01322    0.00420    0.03726
 42 Cu    0.00191    0.00329   -0.00081
 43 Cu    0.01113    0.01100    0.03661
 44 Cu    0.08011    0.00093    0.06088
 45 Cu    0.01950   -0.03539    0.06917
 46 Cu   -0.14563    0.10922    0.00660
 47 Cu   -0.17619    0.01170   -0.05675
 48 Cu   -0.04281    0.20137    0.16983
 49 Cu   -0.04392    0.01354   -0.09643
 50 Cu    0.00240    0.00973    0.01026
 51 Cu   -0.02091   -0.00981    0.00295
 52 Cu    0.02334   -0.03183    0.12113
 53 Cu   -0.04187    0.13998   -0.13529
 54 Cl    0.41635   -0.66144   -0.34405
 55 Cl    0.55137    0.52695    0.29402
 56 Cl   -0.26986   -0.44773    0.26703
 57 Cl    0.03156   -1.65031   -1.48629
 58 Cl   -0.71802   -1.07257   -0.12704
 59 Cl    0.58485    0.43125    0.24351
 60 Cl    0.03330   -0.50002    0.27812
 61 Cl   -0.81434    0.50925   -0.48425
 62 Cl    0.29181   -2.34904   -0.46939
 63 Cl   -0.04827    1.12943    0.26549
 64 Cl   -0.31133   -0.23362   -0.46113
 65 Cl   -2.88561    4.15990    0.15412
 66 Cl    3.25192    1.48138    0.37970
 67 Cl   -0.48744   -0.34719    0.32181
 68 Cl   -0.40601   -0.30548    0.09498
 69 Cl    1.35087    0.69744   -0.51063
 70 Cl   -1.05683   -2.16934   -0.79039
 71 Cl    0.44695    0.80470    0.21790

System changes: positions 

Initializing position-dependent things.

Density initialized from wave functions
                                              
                                              
                                              
                                              
                     Cl     Cl     Cl         
                                              
                 Cl    Cl     Cl              
            Cl    Cl    CCl   Cu     Cu       
                   Cu     Cu    Cu            
               Cu    Cu     Cu                
                    Cu     Cu    Cu           
                Cu    Cu    Cu                
           Cu    Cu     Cu                    
                Cu     Cu    Cu               
            Cu    Cu     Cu                   
       Cu     Cu    Cu  Cu    Cu     Cu       
                   Cu     Cu    Cu            
               Cu    Cu     Cu                
                    Cu     Cu    Cu           
                Cu    Cu    Cu                
           Cu    Cu     Cu                    
                Cu     Cu    Cu               
            Cu    Cu     Cu                   
       Cu     Cu   CCu   Cl     Cl            
              Cl     Cl    Cl                 
                Cl                            
         Cl           Cl                      
                                              
                                              
                                              
                                              

Positions:
   0 Cu     2.884062   -0.018960   10.059901    ( 0.0000,  0.0000,  0.0000)
   1 Cu     4.181838    2.215858    9.985437    ( 0.0000,  0.0000,  0.0000)
   2 Cu     0.266896   -0.004863   10.050616    ( 0.0000,  0.0000,  0.0000)
   3 Cu     1.574279    2.253901   10.067012    ( 0.0000,  0.0000,  0.0000)
   4 Cu     2.903437    3.014374   12.130835    ( 0.0000,  0.0000,  0.0000)
   5 Cu     1.585712    0.751506   12.151541    ( 0.0000,  0.0000,  0.0000)
   6 Cu     5.501517    3.020119   12.120665    ( 0.0000,  0.0000,  0.0000)
   7 Cu     4.204408    0.769451   12.121812    ( 0.0000,  0.0000,  0.0000)
   8 Cu     5.510326    1.510844   14.274637    ( 0.0000,  0.0000,  0.0000)
   9 Cu     6.818134    3.779266   14.271939    ( 0.0000,  0.0000,  0.0000)
  10 Cu     2.895929    1.507179   14.282343    ( 0.0000,  0.0000,  0.0000)
  11 Cu     4.204986    3.779063   14.274813    ( 0.0000,  0.0000,  0.0000)
  12 Cu     2.897797   -0.006189   16.436827    ( 0.0000,  0.0000,  0.0000)
  13 Cu     4.202447    2.263353   16.411262    ( 0.0000,  0.0000,  0.0000)
  14 Cu     0.271272   -0.001965   16.415106    ( 0.0000,  0.0000,  0.0000)
  15 Cu     1.579999    2.267524   16.416234    ( 0.0000,  0.0000,  0.0000)
  16 Cu     2.897366    3.020250   18.534166    ( 0.0000,  0.0000,  0.0000)
  17 Cu     1.577353    0.759795   18.540493    ( 0.0000,  0.0000,  0.0000)
  18 Cu     5.516638    3.017907   18.559904    ( 0.0000,  0.0000,  0.0000)
  19 Cu     4.216642    0.767377   18.566518    ( 0.0000,  0.0000,  0.0000)
  20 Cu     5.488941    1.473728   20.709749    ( 0.0000,  0.0000,  0.0000)
  21 Cu     6.839537    3.822877   20.704424    ( 0.0000,  0.0000,  0.0000)
  22 Cu     2.872543    1.508458   20.644315    ( 0.0000,  0.0000,  0.0000)
  23 Cu     4.185677    3.796947   20.639144    ( 0.0000,  0.0000,  0.0000)
  24 Cu     5.531360    4.554222    9.965689    ( 0.0000,  0.0000,  0.0000)
  25 Cu     2.873925    4.530983   10.031241    ( 0.0000,  0.0000,  0.0000)
  26 Cu     4.211799    5.277375   12.124569    ( 0.0000,  0.0000,  0.0000)
  27 Cu     6.801491    5.271600   12.112208    ( 0.0000,  0.0000,  0.0000)
  28 Cu     8.122337    6.047154   14.246798    ( 0.0000,  0.0000,  0.0000)
  29 Cu     5.516379    6.046172   14.278129    ( 0.0000,  0.0000,  0.0000)
  30 Cu     5.511112    4.532240   16.410369    ( 0.0000,  0.0000,  0.0000)
  31 Cu     2.889049    4.533328   16.405149    ( 0.0000,  0.0000,  0.0000)
  32 Cu     4.204243    5.282575   18.539418    ( 0.0000,  0.0000,  0.0000)
  33 Cu     6.815257    5.268538   18.567341    ( 0.0000,  0.0000,  0.0000)
  34 Cu     8.130552    6.046122   20.646839    ( 0.0000,  0.0000,  0.0000)
  35 Cu     5.502833    6.064385   20.645518    ( 0.0000,  0.0000,  0.0000)
  36 Cu     5.515536   -0.030453   10.042603    ( 0.0000,  0.0000,  0.0000)
  37 Cu     6.824344    2.241347   10.062417    ( 0.0000,  0.0000,  0.0000)
  38 Cu     8.122707    3.020796   12.150089    ( 0.0000,  0.0000,  0.0000)
  39 Cu     6.815029    0.756329   12.144694    ( 0.0000,  0.0000,  0.0000)
  40 Cu     8.132070    1.510091   14.278874    ( 0.0000,  0.0000,  0.0000)
  41 Cu     9.440295    3.775291   14.270108    ( 0.0000,  0.0000,  0.0000)
  42 Cu     5.504173   -0.004483   16.403213    ( 0.0000,  0.0000,  0.0000)
  43 Cu     6.817170    2.264618   16.409422    ( 0.0000,  0.0000,  0.0000)
  44 Cu     8.116277    3.026593   18.556032    ( 0.0000,  0.0000,  0.0000)
  45 Cu     6.806913    0.761819   18.556228    ( 0.0000,  0.0000,  0.0000)
  46 Cu     8.142807    1.505284   20.654308    ( 0.0000,  0.0000,  0.0000)
  47 Cu     9.446529    3.785914   20.643363    ( 0.0000,  0.0000,  0.0000)
  48 Cu     8.141652    4.530655   10.037020    ( 0.0000,  0.0000,  0.0000)
  49 Cu     9.442408    5.280087   12.144351    ( 0.0000,  0.0000,  0.0000)
  50 Cu    10.750492    6.044288   14.267268    ( 0.0000,  0.0000,  0.0000)
  51 Cu     8.124624    4.535685   16.403848    ( 0.0000,  0.0000,  0.0000)
  52 Cu     9.433534    5.288213   18.532897    ( 0.0000,  0.0000,  0.0000)
  53 Cu    10.747012    6.035752   20.640925    ( 0.0000,  0.0000,  0.0000)
  54 Cl     6.163574    2.638184   22.653646    ( 0.0000,  0.0000,  0.0000)
  55 Cl     4.874869    3.387655    8.026472    ( 0.0000,  0.0000,  0.0000)
  56 Cl    10.090420    4.890160   23.066479    ( 0.0000,  0.0000,  0.0000)
  57 Cl     0.917175    1.062580    7.569761    ( 0.0000,  0.0000,  0.0000)
  58 Cl     8.829293    5.700911    7.618314    ( 0.0000,  0.0000,  0.0000)
  59 Cl     2.100705    0.309744   23.106027    ( 0.0000,  0.0000,  0.0000)
  60 Cl     4.841569    4.910288   23.068773    ( 0.0000,  0.0000,  0.0000)
  61 Cl     6.144815    1.125629    7.608869    ( 0.0000,  0.0000,  0.0000)
  62 Cl     3.537347    5.797794    7.605674    ( 0.0000,  0.0000,  0.0000)
  63 Cl     7.375706    0.237312   23.106895    ( 0.0000,  0.0000,  0.0000)
  64 Cl     3.523378    2.608603   22.650260    ( 0.0000,  0.0000,  0.0000)
  65 Cl     7.682913    3.113899    8.005436    ( 0.0000,  0.0000,  0.0000)
  66 Cl     3.413832    1.085382    8.007630    ( 0.0000,  0.0000,  0.0000)
  67 Cl     7.466775    4.922164   23.106767    ( 0.0000,  0.0000,  0.0000)
  68 Cl     8.784990    2.631149   23.063576    ( 0.0000,  0.0000,  0.0000)
  69 Cl     2.268864    3.419645    7.604912    ( 0.0000,  0.0000,  0.0000)
  70 Cl     6.150005    5.731247    7.592560    ( 0.0000,  0.0000,  0.0000)
  71 Cl     4.745260    0.274490   23.105016    ( 0.0000,  0.0000,  0.0000)

Unit cell:
           periodic     x           y           z      points  spacing
  1. axis:    yes    7.851007    0.000000    0.000000    45     0.1511
  2. axis:    yes    3.925503    6.799171    0.000000    45     0.1511
  3. axis:    yes    0.000000    0.000000   30.683867   175     0.1753

  Lengths:   7.851007   7.851006  30.683867
  Angles:   90.000000  90.000000  60.000001

Effective grid spacing dv^(1/3) = 0.1666

     iter     time        total  log10-change:
                         energy  eigst   dens
iter:   1 15:17:25 -4718.347526  -1.74
iter:   2 15:18:22 -4722.045978  -2.30  -2.10
iter:   3 15:19:17 -4718.968608  -2.54  -1.74
iter:   4 15:20:12 -4717.113907  -3.36  -1.94
iter:   5 15:21:08 -4717.673942  -2.98  -2.37
iter:   6 15:22:04 -4716.876160  -4.03  -2.13
iter:   7 15:23:02 -4716.715229  -4.11  -2.51
iter:   8 15:23:58 -4716.712028c -4.09  -2.90
iter:   9 15:24:54 -4716.709602c -4.75  -3.05
iter:  10 15:25:50 -4716.708102c -4.63  -3.09
iter:  11 15:26:45 -4716.703282c -5.31  -3.23
iter:  12 15:27:41 -4716.707795c -5.60  -3.35
iter:  13 15:28:38 -4716.702839c -5.22  -3.25
iter:  14 15:29:34 -4716.702658c -6.03  -3.67
iter:  15 15:30:29 -4716.702501c -6.41  -3.81
iter:  16 15:31:26 -4716.702627c -6.72  -3.93
iter:  17 15:32:23 -4716.702691c -6.43  -4.01c
iter:  18 15:33:18 -4716.702462c -6.84  -4.05c
iter:  19 15:34:13 -4716.702615c -7.17  -3.99
iter:  20 15:35:05 -4716.702515c -7.38  -4.31c
iter:  21 15:36:01 -4716.702552c -7.51c -4.44c

Converged after 21 iterations.

Dipole moment: (-38.780138, -34.332903, -0.049008) |e|*Ang

Energy contributions relative to reference atoms: (reference = -2657147.488543)

Kinetic:       +678.699124
Potential:     -655.874921
External:        +0.000000
XC:            -4738.298413
Entropy (-ST):   -0.874328
Local:           -0.791178
--------------------------
Free energy:   -4717.139716
Extrapolated:  -4716.702552

Showing only first 2 kpts
 Kpt  Band  Eigenvalues  Occupancy
  0   358      1.69603    1.24667
  0   359      1.70694    1.19482
  0   360      1.74599    1.00208
  0   361      1.77258    0.86987

  1   358      1.41756    1.92806
  1   359      1.74108    1.02661
  1   360      1.80838    0.69969
  1   361      1.85792    0.49384


Fermi level: 1.74641

No gap

Forces in eV/Ang:
  0 Cu   -0.02903   -0.06108    0.16036
  1 Cu    0.12140    0.16596    0.38514
  2 Cu    0.00265   -0.08413    0.09428
  3 Cu    0.06875    0.02789    0.12279
  4 Cu   -0.03660    0.02540    0.02482
  5 Cu   -0.03905    0.00546   -0.01216
  6 Cu   -0.02113   -0.01474    0.00192
  7 Cu    0.02247   -0.04768    0.10115
  8 Cu    0.01350   -0.00843    0.01971
  9 Cu    0.00322    0.00152   -0.02910
 10 Cu    0.00467    0.00025   -0.01777
 11 Cu    0.00408    0.00023   -0.02406
 12 Cu   -0.01445    0.00155   -0.04442
 13 Cu   -0.00649   -0.00186    0.00327
 14 Cu    0.00249   -0.00731    0.01950
 15 Cu   -0.00381   -0.00792   -0.03245
 16 Cu   -0.02753    0.01687   -0.02814
 17 Cu    0.04402    0.00512    0.08429
 18 Cu   -0.01640    0.00638    0.00373
 19 Cu   -0.03487   -0.03817   -0.01465
 20 Cu    0.10501    0.01146   -0.26977
 21 Cu   -0.03631   -0.05173   -0.26512
 22 Cu   -0.01167   -0.08505   -0.15860
 23 Cu    0.11842    0.06908   -0.11414
 24 Cu   -0.04332   -0.03431    0.25699
 25 Cu    0.10017   -0.06179   -0.01649
 26 Cu   -0.02274    0.01078   -0.00069
 27 Cu    0.03939    0.03823    0.01633
 28 Cu    0.01294   -0.01068    0.05689
 29 Cu   -0.00762   -0.00903   -0.01022
 30 Cu   -0.00269    0.00851    0.00857
 31 Cu    0.00913    0.01269   -0.01658
 32 Cu   -0.00650   -0.01824    0.07414
 33 Cu    0.01461    0.05601    0.00726
 34 Cu   -0.01091    0.00619    0.00122
 35 Cu    0.01279   -0.03162    0.00876
 36 Cu    0.02636    0.02387   -0.01464
 37 Cu   -0.09955   -0.04299    0.19114
 38 Cu    0.02443    0.00345    0.05434
 39 Cu   -0.01305    0.00684   -0.04790
 40 Cu   -0.01169   -0.01455    0.01133
 41 Cu   -0.00633    0.00824    0.02985
 42 Cu    0.00522   -0.00023    0.01599
 43 Cu    0.00709    0.00819    0.03955
 44 Cu    0.06661   -0.00684    0.02358
 45 Cu    0.02346   -0.02310    0.02693
 46 Cu   -0.10210    0.06411    0.03077
 47 Cu   -0.11479    0.02748   -0.00553
 48 Cu   -0.01105    0.05036   -0.00237
 49 Cu   -0.04353    0.00201   -0.07091
 50 Cu   -0.00022    0.00663   -0.01189
 51 Cu   -0.01516   -0.00635    0.01508
 52 Cu    0.01807   -0.02608    0.07926
 53 Cu   -0.02596    0.09691   -0.02708
 54 Cl    0.16273   -0.38664   -0.41273
 55 Cl    0.29275    0.43055    0.36290
 56 Cl   -0.22770   -0.21174    0.23306
 57 Cl   -0.02345   -0.33029   -0.78235
 58 Cl   -0.38479   -0.46523   -0.15955
 59 Cl    0.41978    0.19784    0.24363
 60 Cl   -0.03431   -0.30041    0.22041
 61 Cl   -0.17369   -0.17167   -0.40885
 62 Cl    0.00273   -0.88241   -0.44039
 63 Cl    0.08197    0.66065    0.24172
 64 Cl   -0.18847   -0.13520   -0.53236
 65 Cl   -1.13128    2.01241    0.39761
 66 Cl    1.11084    0.36099    0.44799
 67 Cl   -0.27681   -0.19543    0.29717
 68 Cl   -0.28117   -0.19497    0.13711
 69 Cl    0.34999    0.19695   -0.31243
 70 Cl   -0.08137   -1.11346   -0.46553
 71 Cl    0.31662    0.46465    0.20863

System changes: positions 

Initializing position-dependent things.

Density initialized from wave functions
                                              
                                              
                                              
                                              
                     Cl     Cl    Cl          
                                              
                 Cl    Cl     Cl              
            Cl     Cl   CCl   Cu     Cu       
                   Cu     Cu    Cu            
               Cu    Cu     Cu                
                    Cu     Cu    Cu           
                Cu    Cu     Cu               
           Cu    Cu     Cu                    
                Cu     Cu    Cu               
            Cu    Cu    CCu          Cu       
       Cu     Cu    Cu        Cu              
                   Cu     Cu    Cu            
               Cu    Cu     Cu                
                    Cu     Cu    Cu           
                Cu    Cu     Cu               
           Cu    Cu     Cu                    
                Cu     Cu    Cu               
            Cu    Cu     Cu                   
       Cu     Cu   CCu   Cl     Cl            
              Cl     Cl    Cl                 
                Cl                            
         Cl           Cl                      
                                              
                                              
                                              
                                              

Positions:
   0 Cu     2.879706   -0.022430   10.063142    ( 0.0000,  0.0000,  0.0000)
   1 Cu     4.195243    2.234357   10.030182    ( 0.0000,  0.0000,  0.0000)
   2 Cu     0.268828   -0.009457   10.053137    ( 0.0000,  0.0000,  0.0000)
   3 Cu     1.575702    2.255130   10.064633    ( 0.0000,  0.0000,  0.0000)
   4 Cu     2.899788    3.017683   12.136167    ( 0.0000,  0.0000,  0.0000)
   5 Cu     1.580995    0.752090   12.153285    ( 0.0000,  0.0000,  0.0000)
   6 Cu     5.498355    3.018853   12.123853    ( 0.0000,  0.0000,  0.0000)
   7 Cu     4.207288    0.764353   12.135809    ( 0.0000,  0.0000,  0.0000)
   8 Cu     5.511969    1.509896   14.276776    ( 0.0000,  0.0000,  0.0000)
   9 Cu     6.818314    3.779446   14.268324    ( 0.0000,  0.0000,  0.0000)
  10 Cu     2.896423    1.507157   14.280034    ( 0.0000,  0.0000,  0.0000)
  11 Cu     4.205414    3.779126   14.271769    ( 0.0000,  0.0000,  0.0000)
  12 Cu     2.896014   -0.005965   16.432006    ( 0.0000,  0.0000,  0.0000)
  13 Cu     4.201765    2.263176   16.411751    ( 0.0000,  0.0000,  0.0000)
  14 Cu     0.271572   -0.002854   16.418013    ( 0.0000,  0.0000,  0.0000)
  15 Cu     1.579585    2.266472   16.412752    ( 0.0000,  0.0000,  0.0000)
  16 Cu     2.894299    3.022233   18.530445    ( 0.0000,  0.0000,  0.0000)
  17 Cu     1.581775    0.760401   18.549378    ( 0.0000,  0.0000,  0.0000)
  18 Cu     5.514799    3.018456   18.558799    ( 0.0000,  0.0000,  0.0000)
  19 Cu     4.213044    0.763125   18.563789    ( 0.0000,  0.0000,  0.0000)
  20 Cu     5.499733    1.474681   20.677907    ( 0.0000,  0.0000,  0.0000)
  21 Cu     6.834924    3.817655   20.674962    ( 0.0000,  0.0000,  0.0000)
  22 Cu     2.870939    1.498890   20.625898    ( 0.0000,  0.0000,  0.0000)
  23 Cu     4.198516    3.805180   20.628135    ( 0.0000,  0.0000,  0.0000)
  24 Cu     5.526148    4.553034    9.995579    ( 0.0000,  0.0000,  0.0000)
  25 Cu     2.884405    4.524027   10.027074    ( 0.0000,  0.0000,  0.0000)
  26 Cu     4.209401    5.278073   12.126063    ( 0.0000,  0.0000,  0.0000)
  27 Cu     6.805902    5.275010   12.117288    ( 0.0000,  0.0000,  0.0000)
  28 Cu     8.123949    6.045916   14.253388    ( 0.0000,  0.0000,  0.0000)
  29 Cu     5.515447    6.045196   14.276633    ( 0.0000,  0.0000,  0.0000)
  30 Cu     5.510699    4.533205   16.411599    ( 0.0000,  0.0000,  0.0000)
  31 Cu     2.890109    4.534942   16.403757    ( 0.0000,  0.0000,  0.0000)
  32 Cu     4.203692    5.280719   18.546780    ( 0.0000,  0.0000,  0.0000)
  33 Cu     6.816866    5.274897   18.567060    ( 0.0000,  0.0000,  0.0000)
  34 Cu     8.129535    6.046613   20.649637    ( 0.0000,  0.0000,  0.0000)
  35 Cu     5.503558    6.060848   20.649278    ( 0.0000,  0.0000,  0.0000)
  36 Cu     5.519649   -0.027179   10.036324    ( 0.0000,  0.0000,  0.0000)
  37 Cu     6.820448    2.235271   10.072120    ( 0.0000,  0.0000,  0.0000)
  38 Cu     8.125382    3.021626   12.158389    ( 0.0000,  0.0000,  0.0000)
  39 Cu     6.813336    0.756982   12.141415    ( 0.0000,  0.0000,  0.0000)
  40 Cu     8.130695    1.508247   14.280087    ( 0.0000,  0.0000,  0.0000)
  41 Cu     9.439750    3.776415   14.273477    ( 0.0000,  0.0000,  0.0000)
  42 Cu     5.504911   -0.004624   16.405683    ( 0.0000,  0.0000,  0.0000)
  43 Cu     6.817896    2.265516   16.414294    ( 0.0000,  0.0000,  0.0000)
  44 Cu     8.123892    3.025517   18.557686    ( 0.0000,  0.0000,  0.0000)
  45 Cu     6.809874    0.759421   18.558129    ( 0.0000,  0.0000,  0.0000)
  46 Cu     8.131865    1.511585   20.658799    ( 0.0000,  0.0000,  0.0000)
  47 Cu     9.434626    3.789739   20.644336    ( 0.0000,  0.0000,  0.0000)
  48 Cu     8.141333    4.531903   10.031219    ( 0.0000,  0.0000,  0.0000)
  49 Cu     9.437161    5.279961   12.136601    ( 0.0000,  0.0000,  0.0000)
  50 Cu    10.750381    6.044990   14.265122    ( 0.0000,  0.0000,  0.0000)
  51 Cu     8.122977    4.535028   16.406059    ( 0.0000,  0.0000,  0.0000)
  52 Cu     9.435548    5.285246   18.541132    ( 0.0000,  0.0000,  0.0000)
  53 Cu    10.744384    6.046081   20.641118    ( 0.0000,  0.0000,  0.0000)
  54 Cl     6.175113    2.600270   22.601579    ( 0.0000,  0.0000,  0.0000)
  55 Cl     4.901957    3.436587    8.072524    ( 0.0000,  0.0000,  0.0000)
  56 Cl    10.064259    4.872135   23.093550    ( 0.0000,  0.0000,  0.0000)
  57 Cl     0.912581    1.064950    7.497782    ( 0.0000,  0.0000,  0.0000)
  58 Cl     8.793475    5.664152    7.597996    ( 0.0000,  0.0000,  0.0000)
  59 Cl     2.146137    0.326172   23.135467    ( 0.0000,  0.0000,  0.0000)
  60 Cl     4.835259    4.880385   23.093556    ( 0.0000,  0.0000,  0.0000)
  61 Cl     6.144347    1.083081    7.561887    ( 0.0000,  0.0000,  0.0000)
  62 Cl     3.528419    5.738152    7.553395    ( 0.0000,  0.0000,  0.0000)
  63 Cl     7.389781    0.302119   23.135339    ( 0.0000,  0.0000,  0.0000)
  64 Cl     3.504541    2.595421   22.583659    ( 0.0000,  0.0000,  0.0000)
  65 Cl     7.602416    3.288262    8.061274    ( 0.0000,  0.0000,  0.0000)
  66 Cl     3.479473    1.093115    8.063944    ( 0.0000,  0.0000,  0.0000)
  67 Cl     7.440077    4.903412   23.141882    ( 0.0000,  0.0000,  0.0000)
  68 Cl     8.755016    2.611132   23.081490    ( 0.0000,  0.0000,  0.0000)
  69 Cl     2.279094    3.427410    7.573511    ( 0.0000,  0.0000,  0.0000)
  70 Cl     6.171414    5.630535    7.546719    ( 0.0000,  0.0000,  0.0000)
  71 Cl     4.779340    0.319739   23.129926    ( 0.0000,  0.0000,  0.0000)

Unit cell:
           periodic     x           y           z      points  spacing
  1. axis:    yes    7.851007    0.000000    0.000000    45     0.1511
  2. axis:    yes    3.925503    6.799171    0.000000    45     0.1511
  3. axis:    yes    0.000000    0.000000   30.683867   175     0.1753

  Lengths:   7.851007   7.851006  30.683867
  Angles:   90.000000  90.000000  60.000001

Effective grid spacing dv^(1/3) = 0.1666

     iter     time        total  log10-change:
                         energy  eigst   dens
iter:   1 15:37:27 -4718.253756  -1.84
iter:   2 15:38:24 -4722.072067  -2.53  -2.25
iter:   3 15:39:21 -4717.795138  -2.98  -1.76
iter:   4 15:40:17 -4717.728912  -3.64  -2.40
iter:   5 15:41:14 -4717.621275c -3.57  -2.48
iter:   6 15:42:10 -4717.611196c -4.29  -2.66
iter:   7 15:43:06 -4717.641649c -4.01  -2.78
iter:   8 15:44:02 -4717.607827c -5.12  -2.73
iter:   9 15:44:58 -4717.586322c -4.64  -2.89
iter:  10 15:45:51 -4717.582813c -5.36  -3.18
iter:  11 15:46:48 -4717.581349c -5.56  -3.34
iter:  12 15:47:44 -4717.580209c -5.52  -3.52
iter:  13 15:48:39 -4717.580655c -6.35  -3.67
iter:  14 15:49:35 -4717.580523c -6.70  -3.80
iter:  15 15:50:31 -4717.580837c -6.05  -3.83
iter:  16 15:51:26 -4717.580641c -7.14  -4.00
iter:  17 15:52:22 -4717.580446c -6.96  -4.11c
iter:  18 15:53:18 -4717.580473c -6.76  -4.19c
iter:  19 15:54:14 -4717.580504c -7.76c -4.46c

Converged after 19 iterations.

Dipole moment: (-42.238365, -35.013951, 0.002069) |e|*Ang

Energy contributions relative to reference atoms: (reference = -2657147.488543)

Kinetic:       +671.465564
Potential:     -651.312664
External:        +0.000000
XC:            -4736.550065
Entropy (-ST):   -0.896973
Local:           -0.734853
--------------------------
Free energy:   -4718.028990
Extrapolated:  -4717.580504

Showing only first 2 kpts
 Kpt  Band  Eigenvalues  Occupancy
  0   358      1.59278    1.35896
  0   359      1.61975    1.23626
  0   360      1.65372    1.07085
  0   361      1.69436    0.86852

  1   358      1.35839    1.91340
  1   359      1.69171    0.88158
  1   360      1.71547    0.76660
  1   361      1.77234    0.52068


Fermi level: 1.66792

No gap

Forces in eV/Ang:
  0 Cu   -0.02893   -0.02025    0.09355
  1 Cu    0.07014    0.07320    0.23517
  2 Cu    0.01582   -0.00898   -0.04760
  3 Cu    0.00938   -0.00575   -0.05011
  4 Cu   -0.05363    0.01250    0.04034
  5 Cu   -0.01199    0.00987   -0.02029
  6 Cu    0.01763   -0.01104    0.09577
  7 Cu    0.00249   -0.04626    0.07315
  8 Cu    0.01631   -0.00608    0.03834
  9 Cu   -0.00089   -0.00136    0.00647
 10 Cu   -0.00372   -0.00253   -0.00055
 11 Cu   -0.00089    0.00421    0.00858
 12 Cu   -0.01469    0.00280   -0.02159
 13 Cu   -0.00510   -0.00029   -0.01050
 14 Cu    0.00385   -0.00563    0.02587
 15 Cu   -0.00215   -0.01059   -0.01720
 16 Cu   -0.00944    0.01825   -0.03809
 17 Cu   -0.00356   -0.00574    0.02262
 18 Cu   -0.01141    0.00599   -0.08421
 19 Cu   -0.00378   -0.03119   -0.05796
 20 Cu   -0.00299   -0.03520   -0.26185
 21 Cu   -0.01744    0.01452   -0.16687
 22 Cu   -0.03762   -0.06717   -0.16214
 23 Cu    0.03526    0.07420   -0.04386
 24 Cu   -0.01470    0.08095    0.33866
 25 Cu    0.02750   -0.00454   -0.02986
 26 Cu   -0.02238    0.01643    0.01605
 27 Cu    0.02785    0.03418    0.02039
 28 Cu    0.01483   -0.01311    0.04648
 29 Cu   -0.00828   -0.00210    0.00326
 30 Cu   -0.00344    0.00686   -0.00077
 31 Cu    0.00242    0.01556   -0.00141
 32 Cu    0.00294    0.00326    0.02141
 33 Cu    0.00570    0.03566   -0.01510
 34 Cu   -0.00468   -0.00490    0.06173
 35 Cu   -0.01054   -0.00826    0.07869
 36 Cu    0.02874    0.01618   -0.04312
 37 Cu    0.01276   -0.06764    0.01479
 38 Cu    0.01621   -0.00447    0.01583
 39 Cu   -0.01202    0.00343   -0.02455
 40 Cu   -0.01064   -0.01376    0.01922
 41 Cu   -0.00229    0.01494    0.02679
 42 Cu    0.00885   -0.01003    0.02061
 43 Cu    0.00731    0.00475    0.02096
 44 Cu    0.03970   -0.01301   -0.01797
 45 Cu    0.02841   -0.01686   -0.02698
 46 Cu   -0.02185    0.00863    0.04233
 47 Cu   -0.01771    0.02714    0.05435
 48 Cu    0.03851    0.05180    0.11388
 49 Cu   -0.02634   -0.00224   -0.07301
 50 Cu   -0.00627    0.00101   -0.01983
 51 Cu   -0.00340   -0.00132    0.02170
 52 Cu    0.01023   -0.00528    0.04141
 53 Cu   -0.00491    0.02522    0.06415
 54 Cl   -0.02617    0.06162   -0.53417
 55 Cl   -0.30294   -0.20276    0.29909
 56 Cl   -0.08773   -0.02381    0.20883
 57 Cl   -0.05851   -0.02946   -0.50181
 58 Cl    0.05590   -0.01471   -0.35634
 59 Cl    0.19397   -0.00598    0.28588
 60 Cl   -0.05565   -0.11527    0.19933
 61 Cl   -0.00202    0.25550   -0.32960
 62 Cl    0.13889   -0.39688   -0.43251
 63 Cl    0.14167    0.08955    0.26755
 64 Cl   -0.13298   -0.01433   -0.65310
 65 Cl   -0.45466    0.28138    0.61762
 66 Cl    0.29030    0.09010    0.55943
 67 Cl   -0.08491   -0.07223    0.30153
 68 Cl   -0.04480   -0.06790    0.24490
 69 Cl    0.28030    0.02017   -0.32987
 70 Cl   -0.03064   -0.08666   -0.54709
 71 Cl    0.10041    0.10606    0.27131

System changes: positions 

Initializing position-dependent things.

Density initialized from wave functions
                                              
                                              
                                              
                                              
                     Cl     Cl    Cl          
                                              
                              Cl              
            Cl   ClCl  ClCl   Cu     Cu       
                   Cu     Cu    Cu            
               Cu    Cu     Cu                
                    Cu     Cu    Cu           
               Cu     Cu     Cu               
           Cu    Cu     Cu                    
                Cu     Cu    Cu               
            Cu    Cu    CCu   Cu     Cu       
       Cu     Cu    Cu                        
                   Cu     Cu    Cu            
               Cu   CCu    CCu   Cu           
                                              
               Cu     Cu     Cu               
           Cu   CCu    CCu   Cu               
                                              
            Cu    Cu     Cu                   
       Cu     Cu   CCul  ClCl   Cl            
              Cl                              
                Cl                            
         Cl           Cl                      
                                              
                                              
                                              
                                              

Positions:
   0 Cu     2.872764   -0.026367   10.074624    ( 0.0000,  0.0000,  0.0000)
   1 Cu     4.212818    2.255175   10.089628    ( 0.0000,  0.0000,  0.0000)
   2 Cu     0.272666   -0.011932   10.045240    ( 0.0000,  0.0000,  0.0000)
   3 Cu     1.576115    2.254419   10.051459    ( 0.0000,  0.0000,  0.0000)
   4 Cu     2.890013    3.021453   12.145726    ( 0.0000,  0.0000,  0.0000)
   5 Cu     1.576570    0.753857   12.152099    ( 0.0000,  0.0000,  0.0000)
   6 Cu     5.499024    3.016643   12.140552    ( 0.0000,  0.0000,  0.0000)
   7 Cu     4.209319    0.754824   12.154946    ( 0.0000,  0.0000,  0.0000)
   8 Cu     5.515307    1.508483   14.283579    ( 0.0000,  0.0000,  0.0000)
   9 Cu     6.818231    3.779346   14.267219    ( 0.0000,  0.0000,  0.0000)
  10 Cu     2.896133    1.506758   14.278611    ( 0.0000,  0.0000,  0.0000)
  11 Cu     4.205505    3.779792   14.271288    ( 0.0000,  0.0000,  0.0000)
  12 Cu     2.892833   -0.005416   16.426246    ( 0.0000,  0.0000,  0.0000)
  13 Cu     4.200653    2.263047   16.410500    ( 0.0000,  0.0000,  0.0000)
  14 Cu     0.272310   -0.004187   16.423612    ( 0.0000,  0.0000,  0.0000)
  15 Cu     1.579046    2.264292   16.408366    ( 0.0000,  0.0000,  0.0000)
  16 Cu     2.891246    3.026030   18.522643    ( 0.0000,  0.0000,  0.0000)
  17 Cu     1.583505    0.759890   18.557383    ( 0.0000,  0.0000,  0.0000)
  18 Cu     5.512116    3.019592   18.545340    ( 0.0000,  0.0000,  0.0000)
  19 Cu     4.210619    0.756219   18.553446    ( 0.0000,  0.0000,  0.0000)
  20 Cu     5.504875    1.469908   20.621515    ( 0.0000,  0.0000,  0.0000)
  21 Cu     6.829693    3.817125   20.634403    ( 0.0000,  0.0000,  0.0000)
  22 Cu     2.864433    1.483769   20.591783    ( 0.0000,  0.0000,  0.0000)
  23 Cu     4.210570    3.820742   20.616181    ( 0.0000,  0.0000,  0.0000)
  24 Cu     5.521050    4.565081   10.062111    ( 0.0000,  0.0000,  0.0000)
  25 Cu     2.893944    4.519573   10.019758    ( 0.0000,  0.0000,  0.0000)
  26 Cu     4.204837    5.280736   12.129680    ( 0.0000,  0.0000,  0.0000)
  27 Cu     6.812407    5.281666   12.123958    ( 0.0000,  0.0000,  0.0000)
  28 Cu     8.127059    6.043296   14.263887    ( 0.0000,  0.0000,  0.0000)
  29 Cu     5.513697    6.044367   14.276204    ( 0.0000,  0.0000,  0.0000)
  30 Cu     5.509937    4.534743   16.412227    ( 0.0000,  0.0000,  0.0000)
  31 Cu     2.891050    4.538169   16.402922    ( 0.0000,  0.0000,  0.0000)
  32 Cu     4.203876    5.280245   18.553674    ( 0.0000,  0.0000,  0.0000)
  33 Cu     6.818572    5.283636   18.564373    ( 0.0000,  0.0000,  0.0000)
  34 Cu     8.128349    6.046100   20.661010    ( 0.0000,  0.0000,  0.0000)
  35 Cu     5.502199    6.057711   20.663710    ( 0.0000,  0.0000,  0.0000)
  36 Cu     5.526447   -0.022846   10.025260    ( 0.0000,  0.0000,  0.0000)
  37 Cu     6.822235    2.221636   10.076314    ( 0.0000,  0.0000,  0.0000)
  38 Cu     8.129209    3.021540   12.165844    ( 0.0000,  0.0000,  0.0000)
  39 Cu     6.810577    0.757812   12.136592    ( 0.0000,  0.0000,  0.0000)
  40 Cu     8.128360    1.505156   14.283568    ( 0.0000,  0.0000,  0.0000)
  41 Cu     9.439162    3.779288   14.279267    ( 0.0000,  0.0000,  0.0000)
  42 Cu     5.506661   -0.006215   16.410254    ( 0.0000,  0.0000,  0.0000)
  43 Cu     6.819351    2.266700   16.420156    ( 0.0000,  0.0000,  0.0000)
  44 Cu     8.133929    3.022927   18.555655    ( 0.0000,  0.0000,  0.0000)
  45 Cu     6.815768    0.755684   18.554865    ( 0.0000,  0.0000,  0.0000)
  46 Cu     8.122841    1.516034   20.667777    ( 0.0000,  0.0000,  0.0000)
  47 Cu     9.425819    3.796030   20.653332    ( 0.0000,  0.0000,  0.0000)
  48 Cu     8.147104    4.539008   10.043351    ( 0.0000,  0.0000,  0.0000)
  49 Cu     9.430322    5.279463   12.121669    ( 0.0000,  0.0000,  0.0000)
  50 Cu    10.749371    6.045508   14.260804    ( 0.0000,  0.0000,  0.0000)
  51 Cu     8.121596    4.534492   16.410608    ( 0.0000,  0.0000,  0.0000)
  52 Cu     9.438149    5.282843   18.551535    ( 0.0000,  0.0000,  0.0000)
  53 Cu    10.742312    6.055261   20.651594    ( 0.0000,  0.0000,  0.0000)
  54 Cl     6.175648    2.590304   22.492832    ( 0.0000,  0.0000,  0.0000)
  55 Cl     4.870329    3.433384    8.143174    ( 0.0000,  0.0000,  0.0000)
  56 Cl    10.036931    4.860424   23.139341    ( 0.0000,  0.0000,  0.0000)
  57 Cl     0.900900    1.072827    7.388985    ( 0.0000,  0.0000,  0.0000)
  58 Cl     8.784324    5.646308    7.533673    ( 0.0000,  0.0000,  0.0000)
  59 Cl     2.198984    0.332606   23.194251    ( 0.0000,  0.0000,  0.0000)
  60 Cl     4.822932    4.848183   23.136460    ( 0.0000,  0.0000,  0.0000)
  61 Cl     6.149073    1.091250    7.487398    ( 0.0000,  0.0000,  0.0000)
  62 Cl     3.541519    5.658086    7.460346    ( 0.0000,  0.0000,  0.0000)
  63 Cl     7.419697    0.347941   23.190659    ( 0.0000,  0.0000,  0.0000)
  64 Cl     3.475319    2.586699   22.449149    ( 0.0000,  0.0000,  0.0000)
  65 Cl     7.504457    3.410206    8.185908    ( 0.0000,  0.0000,  0.0000)
  66 Cl     3.541609    1.101525    8.178808    ( 0.0000,  0.0000,  0.0000)
  67 Cl     7.414254    4.883446   23.205965    ( 0.0000,  0.0000,  0.0000)
  68 Cl     8.732564    2.590754   23.128083    ( 0.0000,  0.0000,  0.0000)
  69 Cl     2.317984    3.430628    7.508764    ( 0.0000,  0.0000,  0.0000)
  70 Cl     6.186986    5.569781    7.442814    ( 0.0000,  0.0000,  0.0000)
  71 Cl     4.812269    0.358056   23.183931    ( 0.0000,  0.0000,  0.0000)

Unit cell:
           periodic     x           y           z      points  spacing
  1. axis:    yes    7.851007    0.000000    0.000000    45     0.1511
  2. axis:    yes    3.925503    6.799171    0.000000    45     0.1511
  3. axis:    yes    0.000000    0.000000   30.683867   175     0.1753

  Lengths:   7.851007   7.851006  30.683867
  Angles:   90.000000  90.000000  60.000001

Effective grid spacing dv^(1/3) = 0.1666

     iter     time        total  log10-change:
                         energy  eigst   dens
iter:   1 15:55:41 -4719.083752  -1.65
iter:   2 15:56:36 -4720.112382  -2.64  -2.20
iter:   3 15:57:32 -4719.001340  -3.10  -1.97
iter:   4 15:58:28 -4718.687236  -3.34  -2.20
iter:   5 15:59:24 -4718.435074  -3.35  -2.33
iter:   6 16:00:20 -4718.436421c -4.07  -2.59
iter:   7 16:01:17 -4718.387450c -3.94  -2.62
iter:   8 16:02:12 -4718.376833c -4.53  -2.86
iter:   9 16:03:07 -4718.375344c -4.44  -2.99
iter:  10 16:04:04 -4718.367032c -5.10  -3.02
iter:  11 16:05:00 -4718.366078c -5.79  -3.33
iter:  12 16:05:57 -4718.366309c -5.44  -3.41
iter:  13 16:06:55 -4718.365660c -6.03  -3.56
iter:  14 16:07:52 -4718.365361c -6.89  -3.66
iter:  15 16:08:48 -4718.365395c -6.44  -3.77
iter:  16 16:09:45 -4718.365284c -6.35  -3.83
iter:  17 16:10:42 -4718.365413c -6.59  -3.97
iter:  18 16:11:38 -4718.365329c -6.96  -4.07c
iter:  19 16:12:39 -4718.365323c -7.56c -4.18c

Converged after 19 iterations.

Dipole moment: (-44.528868, -34.475546, 0.060416) |e|*Ang

Energy contributions relative to reference atoms: (reference = -2657147.488543)

Kinetic:       +665.526218
Potential:     -647.759032
External:        +0.000000
XC:            -4735.024193
Entropy (-ST):   -0.906001
Local:           -0.655317
--------------------------
Free energy:   -4718.818324
Extrapolated:  -4718.365323

Showing only first 2 kpts
 Kpt  Band  Eigenvalues  Occupancy
  0   358      1.47108    1.48554
  0   359      1.52626    1.24899
  0   360      1.56795    1.04585
  0   361      1.60623    0.85547

  1   358      1.31573    1.86351
  1   359      1.55366    1.11678
  1   360      1.58641    0.95362
  1   361      1.69969    0.45388


Fermi level: 1.57712

No gap

Forces in eV/Ang:
  0 Cu   -0.03261   -0.01983    0.11637
  1 Cu    0.02797   -0.00245    0.24653
  2 Cu   -0.00183    0.02025   -0.10366
  3 Cu   -0.01050    0.00247   -0.12443
  4 Cu   -0.04417    0.00135    0.04654
  5 Cu   -0.00576    0.01146   -0.01109
  6 Cu    0.05354   -0.02572    0.18913
  7 Cu    0.00161   -0.01503    0.05331
  8 Cu    0.01137   -0.01118    0.05464
  9 Cu    0.00432   -0.00049    0.04206
 10 Cu   -0.01208   -0.00495    0.01101
 11 Cu   -0.01270    0.01061    0.04097
 12 Cu   -0.00996   -0.00212    0.00134
 13 Cu   -0.00734   -0.00091   -0.03530
 14 Cu    0.00222   -0.00478    0.00874
 15 Cu    0.00092   -0.00816   -0.00262
 16 Cu    0.01029    0.02033   -0.05142
 17 Cu   -0.05394   -0.02578   -0.05231
 18 Cu   -0.01743    0.01981   -0.16532
 19 Cu    0.01000   -0.02984   -0.11702
 20 Cu   -0.11216   -0.10748   -0.22198
 21 Cu    0.04838    0.10586   -0.14519
 22 Cu   -0.10568   -0.15163   -0.30329
 23 Cu    0.00706    0.11993   -0.10108
 24 Cu   -0.02325    0.04075    0.12493
 25 Cu   -0.03623    0.05444   -0.03465
 26 Cu   -0.04093    0.03043    0.06506
 27 Cu    0.01888    0.02920    0.12699
 28 Cu    0.01311   -0.01036    0.02046
 29 Cu   -0.01043    0.00665    0.00927
 30 Cu   -0.00055    0.01177   -0.01623
 31 Cu   -0.00528    0.01625    0.01441
 32 Cu    0.01070    0.02498   -0.01524
 33 Cu   -0.00613    0.02003   -0.01791
 34 Cu    0.00233   -0.01385    0.07567
 35 Cu   -0.02271    0.01955    0.09643
 36 Cu    0.01858   -0.00311   -0.08799
 37 Cu    0.03338   -0.13085    0.07364
 38 Cu    0.00349   -0.02687    0.00648
 39 Cu   -0.00664   -0.00440   -0.00225
 40 Cu   -0.00478   -0.00976    0.00596
 41 Cu   -0.00221    0.01540    0.01179
 42 Cu    0.01266   -0.02025    0.00971
 43 Cu    0.01244   -0.00270   -0.01214
 44 Cu    0.01815   -0.01018   -0.03768
 45 Cu    0.03721   -0.02081   -0.06980
 46 Cu    0.02501   -0.02164    0.04962
 47 Cu    0.05832    0.00356    0.08504
 48 Cu    0.14544    0.17077    0.35299
 49 Cu    0.02266    0.00732   -0.00605
 50 Cu   -0.00966   -0.00443   -0.02264
 51 Cu    0.00862    0.00616    0.02530
 52 Cu    0.00092    0.01294    0.02978
 53 Cu    0.00669   -0.02422    0.08881
 54 Cl    0.04164    0.22491   -0.74025
 55 Cl   -0.29114    0.13738    0.44801
 56 Cl    0.08361   -0.00874    0.22441
 57 Cl    0.09173    0.09942   -0.42059
 58 Cl    0.21423    0.22408   -0.63318
 59 Cl    0.02891   -0.08070    0.40953
 60 Cl   -0.04034   -0.03480    0.29777
 61 Cl    0.05514    0.21408   -0.38116
 62 Cl    0.18246   -0.00950   -0.45185
 63 Cl    0.00618   -0.18521    0.33215
 64 Cl   -0.11214    0.06175   -0.71575
 65 Cl    0.52231   -0.75538    0.67095
 66 Cl   -0.38806   -0.35765    0.71822
 67 Cl    0.00051    0.00171    0.36586
 68 Cl    0.13001    0.04177    0.45005
 69 Cl   -0.27319   -0.20082   -0.47670
 70 Cl   -0.20306    0.53575   -0.86043
 71 Cl   -0.09056    0.02617    0.41044

System changes: positions 

Initializing position-dependent things.

Density initialized from wave functions
                                              
                                              
                                              
                                              
                            Cl                
                     Cl           Cl          
                              Cl              
            Cl   ClCl  ClCl   Cu     Cu       
                   Cu     Cu    Cu            
                                              
              Cu    CCu    CCu   Cu           
               Cu     Cu     Cu               
                                              
           Cu   CCu    CCu   Cu               
                                              
            Cu    Cu    CCu   Cu     Cu       
       Cu     Cu   CCu    Cu    Cu            
                                              
               Cu   CCu    CCu   Cu           
               Cu     Cu     Cu               
                                              
           Cu   CCu    CCu   Cu               
                  Cu     Cu                   
            Cu                                
       Cu     Cu   CCul  ClCl   Cl            
              ClCl                            
                      Cl                      
         Cl                                   
                                              
                                              
                                              
                                              

Positions:
   0 Cu     2.865821   -0.030304   10.086106    ( 0.0000,  0.0000,  0.0000)
   1 Cu     4.230393    2.275993   10.149073    ( 0.0000,  0.0000,  0.0000)
   2 Cu     0.276504   -0.014407   10.037344    ( 0.0000,  0.0000,  0.0000)
   3 Cu     1.576529    2.253709   10.038284    ( 0.0000,  0.0000,  0.0000)
   4 Cu     2.880238    3.025223   12.155285    ( 0.0000,  0.0000,  0.0000)
   5 Cu     1.572146    0.755624   12.150913    ( 0.0000,  0.0000,  0.0000)
   6 Cu     5.499692    3.014433   12.157252    ( 0.0000,  0.0000,  0.0000)
   7 Cu     4.211349    0.745295   12.174082    ( 0.0000,  0.0000,  0.0000)
   8 Cu     5.518644    1.507071   14.290381    ( 0.0000,  0.0000,  0.0000)
   9 Cu     6.818147    3.779245   14.266115    ( 0.0000,  0.0000,  0.0000)
  10 Cu     2.895844    1.506359   14.277189    ( 0.0000,  0.0000,  0.0000)
  11 Cu     4.205597    3.780458   14.270806    ( 0.0000,  0.0000,  0.0000)
  12 Cu     2.889651   -0.004867   16.420486    ( 0.0000,  0.0000,  0.0000)
  13 Cu     4.199541    2.262917   16.409248    ( 0.0000,  0.0000,  0.0000)
  14 Cu     0.273047   -0.005520   16.429211    ( 0.0000,  0.0000,  0.0000)
  15 Cu     1.578507    2.262113   16.403980    ( 0.0000,  0.0000,  0.0000)
  16 Cu     2.888193    3.029827   18.514841    ( 0.0000,  0.0000,  0.0000)
  17 Cu     1.585236    0.759380   18.565388    ( 0.0000,  0.0000,  0.0000)
  18 Cu     5.509433    3.020727   18.531882    ( 0.0000,  0.0000,  0.0000)
  19 Cu     4.208195    0.749313   18.543104    ( 0.0000,  0.0000,  0.0000)
  20 Cu     5.510016    1.465136   20.565124    ( 0.0000,  0.0000,  0.0000)
  21 Cu     6.824463    3.816596   20.593845    ( 0.0000,  0.0000,  0.0000)
  22 Cu     2.857926    1.468648   20.557668    ( 0.0000,  0.0000,  0.0000)
  23 Cu     4.222625    3.836303   20.604227    ( 0.0000,  0.0000,  0.0000)
  24 Cu     5.515953    4.577128   10.128643    ( 0.0000,  0.0000,  0.0000)
  25 Cu     2.903484    4.515120   10.012443    ( 0.0000,  0.0000,  0.0000)
  26 Cu     4.200272    5.283398   12.133298    ( 0.0000,  0.0000,  0.0000)
  27 Cu     6.818912    5.288322   12.130628    ( 0.0000,  0.0000,  0.0000)
  28 Cu     8.130168    6.040676   14.274386    ( 0.0000,  0.0000,  0.0000)
  29 Cu     5.511947    6.043538   14.275775    ( 0.0000,  0.0000,  0.0000)
  30 Cu     5.509174    4.536282   16.412855    ( 0.0000,  0.0000,  0.0000)
  31 Cu     2.891991    4.541397   16.402087    ( 0.0000,  0.0000,  0.0000)
  32 Cu     4.204060    5.279770   18.560568    ( 0.0000,  0.0000,  0.0000)
  33 Cu     6.820279    5.292375   18.561687    ( 0.0000,  0.0000,  0.0000)
  34 Cu     8.127163    6.045587   20.672384    ( 0.0000,  0.0000,  0.0000)
  35 Cu     5.500839    6.054575   20.678142    ( 0.0000,  0.0000,  0.0000)
  36 Cu     5.533245   -0.018513   10.014196    ( 0.0000,  0.0000,  0.0000)
  37 Cu     6.824023    2.208001   10.080507    ( 0.0000,  0.0000,  0.0000)
  38 Cu     8.133036    3.021454   12.173299    ( 0.0000,  0.0000,  0.0000)
  39 Cu     6.807819    0.758641   12.131769    ( 0.0000,  0.0000,  0.0000)
  40 Cu     8.126025    1.502065   14.287048    ( 0.0000,  0.0000,  0.0000)
  41 Cu     9.438575    3.782161   14.285058    ( 0.0000,  0.0000,  0.0000)
  42 Cu     5.508410   -0.007805   16.414825    ( 0.0000,  0.0000,  0.0000)
  43 Cu     6.820805    2.267884   16.426018    ( 0.0000,  0.0000,  0.0000)
  44 Cu     8.143965    3.020336   18.553624    ( 0.0000,  0.0000,  0.0000)
  45 Cu     6.821661    0.751946   18.551602    ( 0.0000,  0.0000,  0.0000)
  46 Cu     8.113817    1.520482   20.676755    ( 0.0000,  0.0000,  0.0000)
  47 Cu     9.417013    3.802321   20.662329    ( 0.0000,  0.0000,  0.0000)
  48 Cu     8.152875    4.546112   10.055484    ( 0.0000,  0.0000,  0.0000)
  49 Cu     9.423484    5.278965   12.106738    ( 0.0000,  0.0000,  0.0000)
  50 Cu    10.748360    6.046027   14.256486    ( 0.0000,  0.0000,  0.0000)
  51 Cu     8.120215    4.533956   16.415157    ( 0.0000,  0.0000,  0.0000)
  52 Cu     9.440751    5.280440   18.561937    ( 0.0000,  0.0000,  0.0000)
  53 Cu    10.740240    6.064441   20.662070    ( 0.0000,  0.0000,  0.0000)
  54 Cl     6.176183    2.580338   22.384084    ( 0.0000,  0.0000,  0.0000)
  55 Cl     4.838701    3.430180    8.213824    ( 0.0000,  0.0000,  0.0000)
  56 Cl    10.009602    4.848712   23.185132    ( 0.0000,  0.0000,  0.0000)
  57 Cl     0.889220    1.080704    7.280188    ( 0.0000,  0.0000,  0.0000)
  58 Cl     8.775174    5.628463    7.469351    ( 0.0000,  0.0000,  0.0000)
  59 Cl     2.251830    0.339040   23.253035    ( 0.0000,  0.0000,  0.0000)
  60 Cl     4.810606    4.815982   23.179365    ( 0.0000,  0.0000,  0.0000)
  61 Cl     6.153798    1.099419    7.412909    ( 0.0000,  0.0000,  0.0000)
  62 Cl     3.554619    5.578020    7.367297    ( 0.0000,  0.0000,  0.0000)
  63 Cl     7.449613    0.393764   23.245979    ( 0.0000,  0.0000,  0.0000)
  64 Cl     3.446096    2.577978   22.314640    ( 0.0000,  0.0000,  0.0000)
  65 Cl     7.406499    3.532150    8.310543    ( 0.0000,  0.0000,  0.0000)
  66 Cl     3.603746    1.109935    8.293673    ( 0.0000,  0.0000,  0.0000)
  67 Cl     7.388430    4.863480   23.270048    ( 0.0000,  0.0000,  0.0000)
  68 Cl     8.710112    2.570376   23.174676    ( 0.0000,  0.0000,  0.0000)
  69 Cl     2.356873    3.433846    7.444017    ( 0.0000,  0.0000,  0.0000)
  70 Cl     6.202558    5.509026    7.338910    ( 0.0000,  0.0000,  0.0000)
  71 Cl     4.845198    0.396373   23.237936    ( 0.0000,  0.0000,  0.0000)

Unit cell:
           periodic     x           y           z      points  spacing
  1. axis:    yes    7.851007    0.000000    0.000000    45     0.1511
  2. axis:    yes    3.925503    6.799171    0.000000    45     0.1511
  3. axis:    yes    0.000000    0.000000   30.683867   175     0.1753

  Lengths:   7.851007   7.851006  30.683867
  Angles:   90.000000  90.000000  60.000001

Effective grid spacing dv^(1/3) = 0.1666

     iter     time        total  log10-change:
                         energy  eigst   dens
iter:   1 16:14:17 -4719.551086  -1.65
iter:   2 16:15:13 -4720.474273  -2.74  -2.24
iter:   3 16:16:10 -4719.231333  -3.26  -2.02
iter:   4 16:17:06 -4719.067499  -3.18  -2.35
iter:   5 16:18:02 -4718.951564c -4.07  -2.43
iter:   6 16:18:58 -4718.896451c -3.78  -2.59
iter:   7 16:19:55 -4718.876304c -4.11  -2.73
iter:   8 16:20:52 -4718.868892c -4.57  -2.89
iter:   9 16:21:49 -4718.867381c -4.57  -3.02
iter:  10 16:22:46 -4718.868933c -4.81  -3.09
iter:  11 16:23:43 -4718.860758c -4.85  -3.10
iter:  12 16:24:40 -4718.860794c -5.69  -3.49
iter:  13 16:25:38 -4718.860140c -6.24  -3.54
iter:  14 16:26:35 -4718.859954c -5.88  -3.65
iter:  15 16:27:32 -4718.860028c -6.64  -3.84
iter:  16 16:28:29 -4718.859959c -6.38  -3.91
iter:  17 16:29:26 -4718.859993c -6.83  -3.97
iter:  18 16:30:23 -4718.859938c -7.01  -4.15c
iter:  19 16:31:18 -4718.860003c -7.44c -4.25c

Converged after 19 iterations.

Dipole moment: (-45.010704, -33.304057, 0.098617) |e|*Ang

Energy contributions relative to reference atoms: (reference = -2657147.488543)

Kinetic:       +664.714146
Potential:     -648.124811
External:        +0.000000
XC:            -4734.393650
Entropy (-ST):   -0.896459
Local:           -0.607458
--------------------------
Free energy:   -4719.308232
Extrapolated:  -4718.860003

Showing only first 2 kpts
 Kpt  Band  Eigenvalues  Occupancy
  0   358      1.40026    1.45464
  0   359      1.45394    1.21857
  0   360      1.50446    0.96957
  0   361      1.53769    0.80587

  1   358      1.26785    1.81860
  1   359      1.43090    1.32509
  1   360      1.49317    1.02597
  1   361      1.61987    0.45762


Fermi level: 1.49837

No gap

Forces in eV/Ang:
  0 Cu   -0.08713   -0.06810    0.21948
  1 Cu   -0.00403   -0.03837    0.34489
  2 Cu   -0.02423    0.04591   -0.12879
  3 Cu   -0.02649    0.01324   -0.14570
  4 Cu   -0.03502   -0.00585    0.06539
  5 Cu    0.00166    0.00868    0.00513
  6 Cu    0.10155   -0.03134    0.30986
  7 Cu   -0.00060    0.01619    0.04070
  8 Cu    0.00653   -0.01338    0.06697
  9 Cu    0.01147   -0.00050    0.08262
 10 Cu   -0.02168   -0.00573    0.02605
 11 Cu   -0.02588    0.01683    0.07480
 12 Cu   -0.00558   -0.00556    0.02111
 13 Cu   -0.01074   -0.00016   -0.05806
 14 Cu    0.00181   -0.00186   -0.01319
 15 Cu    0.00525   -0.00607    0.01606
 16 Cu    0.03400    0.02218   -0.06587
 17 Cu   -0.11775   -0.06018   -0.14604
 18 Cu   -0.02409    0.03771   -0.24840
 19 Cu    0.01806   -0.03478   -0.19203
 20 Cu   -0.24350   -0.22379   -0.22320
 21 Cu    0.13792    0.23896   -0.16047
 22 Cu   -0.24208   -0.39215   -0.61995
 23 Cu    0.03201    0.23904   -0.22723
 24 Cu   -0.03861    0.00521   -0.07146
 25 Cu   -0.10083    0.11255   -0.01571
 26 Cu   -0.07886    0.05220    0.14239
 27 Cu    0.01837    0.02731    0.26928
 28 Cu    0.00896   -0.00917   -0.00095
 29 Cu   -0.01169    0.01426    0.02045
 30 Cu    0.00228    0.01467   -0.02803
 31 Cu   -0.01234    0.01428    0.03426
 32 Cu    0.02073    0.05780   -0.06116
 33 Cu   -0.01683    0.01013   -0.02797
 34 Cu    0.00875   -0.02170    0.08248
 35 Cu   -0.03405    0.04814    0.11322
 36 Cu    0.01189   -0.02985   -0.12297
 37 Cu    0.06614   -0.25534    0.17847
 38 Cu   -0.01590   -0.04611   -0.00982
 39 Cu   -0.00226   -0.02262    0.03297
 40 Cu    0.00118   -0.00317   -0.01019
 41 Cu   -0.00214    0.01459   -0.00309
 42 Cu    0.01678   -0.02871   -0.00190
 43 Cu    0.01764   -0.01109   -0.04444
 44 Cu   -0.00409   -0.00947   -0.06103
 45 Cu    0.05931   -0.03266   -0.12401
 46 Cu    0.06742   -0.04772    0.04764
 47 Cu    0.12184   -0.01454    0.11104
 48 Cu    0.44045    0.45322    0.90400
 49 Cu    0.08458    0.02301    0.07055
 50 Cu   -0.01438   -0.01179   -0.01926
 51 Cu    0.02083    0.01227    0.02824
 52 Cu   -0.01094    0.03533    0.01992
 53 Cu    0.01819   -0.07280    0.10483
 54 Cl    0.17427    0.36318   -0.84452
 55 Cl   -0.19579    0.55313    0.53595
 56 Cl    0.25597   -0.06983    0.22678
 57 Cl    0.23758    0.26130   -0.30206
 58 Cl    0.21005    0.36768   -0.87693
 59 Cl   -0.04217   -0.10443    0.51341
 60 Cl   -0.06575   -0.02742    0.40207
 61 Cl    0.17094    0.25708   -0.41585
 62 Cl    0.15167    0.32882   -0.51233
 63 Cl   -0.13462   -0.42729    0.39791
 64 Cl   -0.13697    0.22866   -0.37564
 65 Cl    1.31224   -1.69826    0.28265
 66 Cl   -0.95202   -0.91165    0.54348
 67 Cl    0.02370    0.02770    0.39930
 68 Cl    0.32443    0.18549    0.66938
 69 Cl   -0.79413   -0.52882   -0.59382
 70 Cl   -0.38024    1.12662   -1.22647
 71 Cl   -0.27633    0.03301    0.55963

System changes: positions 

Initializing position-dependent things.

Density initialized from wave functions
                                              
                                              
                                              
                                              
                            Cl                
                     Cl           Cl          
                              Cl              
            Cl  Cl Cl  ClCl   Cu     Cu       
                   Cu     Cu    Cu            
                                              
              Cu    CCu    CCu   Cu           
               Cu     Cu     Cu               
                                              
           Cu   CCu    CCu   Cu               
                         Cu                   
            Cu    Cu    Cu    Cu     Cu       
       Cu     Cu   CCu    Cu    Cu            
                                              
               Cu   CCu    CCu   Cu           
               Cu     Cu     Cu               
                                              
           Cu   CCu    CCu    Cu              
            Cu    Cu     Cu                   
                                              
       Cu     Cu   CCul  ClCl   Cl            
              ClCl                            
                      Cl                      
         Cl                                   
                                              
                                              
                                              
                                              

Positions:
   0 Cu     2.854038   -0.039595   10.114405    ( 0.0000,  0.0000,  0.0000)
   1 Cu     4.251533    2.300045   10.236149    ( 0.0000,  0.0000,  0.0000)
   2 Cu     0.279174   -0.017741   10.026890    ( 0.0000,  0.0000,  0.0000)
   3 Cu     1.578438    2.254595   10.023523    ( 0.0000,  0.0000,  0.0000)
   4 Cu     2.867523    3.029437   12.168441    ( 0.0000,  0.0000,  0.0000)
   5 Cu     1.566686    0.757992   12.149162    ( 0.0000,  0.0000,  0.0000)
   6 Cu     5.504631    3.010265   12.188397    ( 0.0000,  0.0000,  0.0000)
   7 Cu     4.213951    0.734937   12.197955    ( 0.0000,  0.0000,  0.0000)
   8 Cu     5.522720    1.504776   14.301012    ( 0.0000,  0.0000,  0.0000)
   9 Cu     6.818702    3.779157   14.268081    ( 0.0000,  0.0000,  0.0000)
  10 Cu     2.894671    1.505696   14.276506    ( 0.0000,  0.0000,  0.0000)
  11 Cu     4.204607    3.781923   14.273184    ( 0.0000,  0.0000,  0.0000)
  12 Cu     2.885758   -0.004525   16.414337    ( 0.0000,  0.0000,  0.0000)
  13 Cu     4.197722    2.262722   16.405345    ( 0.0000,  0.0000,  0.0000)
  14 Cu     0.273953   -0.007162   16.434778    ( 0.0000,  0.0000,  0.0000)
  15 Cu     1.578092    2.259402   16.399329    ( 0.0000,  0.0000,  0.0000)
  16 Cu     2.885892    3.035193   18.503101    ( 0.0000,  0.0000,  0.0000)
  17 Cu     1.582808    0.756203   18.569183    ( 0.0000,  0.0000,  0.0000)
  18 Cu     5.505125    3.023832   18.506855    ( 0.0000,  0.0000,  0.0000)
  19 Cu     4.205570    0.739585   18.523346    ( 0.0000,  0.0000,  0.0000)
  20 Cu     5.506963    1.450226   20.489853    ( 0.0000,  0.0000,  0.0000)
  21 Cu     6.824572    3.825650   20.537641    ( 0.0000,  0.0000,  0.0000)
  22 Cu     2.839771    1.432719   20.489798    ( 0.0000,  0.0000,  0.0000)
  23 Cu     4.239697    3.865125   20.578155    ( 0.0000,  0.0000,  0.0000)
  24 Cu     5.507829    4.588497   10.200483    ( 0.0000,  0.0000,  0.0000)
  25 Cu     2.911393    4.514112   10.004080    ( 0.0000,  0.0000,  0.0000)
  26 Cu     4.191306    5.288910   12.143361    ( 0.0000,  0.0000,  0.0000)
  27 Cu     6.827498    5.297571   12.149906    ( 0.0000,  0.0000,  0.0000)
  28 Cu     8.134103    6.037278   14.286624    ( 0.0000,  0.0000,  0.0000)
  29 Cu     5.509415    6.043100   14.276060    ( 0.0000,  0.0000,  0.0000)
  30 Cu     5.508439    4.538767   16.412393    ( 0.0000,  0.0000,  0.0000)
  31 Cu     2.892625    4.545687   16.402308    ( 0.0000,  0.0000,  0.0000)
  32 Cu     4.205011    5.281446   18.566928    ( 0.0000,  0.0000,  0.0000)
  33 Cu     6.821648    5.303307   18.557974    ( 0.0000,  0.0000,  0.0000)
  34 Cu     8.126029    6.044248   20.687563    ( 0.0000,  0.0000,  0.0000)
  35 Cu     5.498302    6.052736   20.698074    ( 0.0000,  0.0000,  0.0000)
  36 Cu     5.541325   -0.014887    9.997396    ( 0.0000,  0.0000,  0.0000)
  37 Cu     6.825263    2.181205   10.099779    ( 0.0000,  0.0000,  0.0000)
  38 Cu     8.136896    3.019262   12.181636    ( 0.0000,  0.0000,  0.0000)
  39 Cu     6.804562    0.758646   12.126764    ( 0.0000,  0.0000,  0.0000)
  40 Cu     8.123375    1.498382   14.290470    ( 0.0000,  0.0000,  0.0000)
  41 Cu     9.437680    3.785983   14.291662    ( 0.0000,  0.0000,  0.0000)
  42 Cu     5.511104   -0.010760   16.419770    ( 0.0000,  0.0000,  0.0000)
  43 Cu     6.823315    2.268809   16.430980    ( 0.0000,  0.0000,  0.0000)
  44 Cu     8.155845    3.017095   18.549474    ( 0.0000,  0.0000,  0.0000)
  45 Cu     6.831043    0.745952   18.543377    ( 0.0000,  0.0000,  0.0000)
  46 Cu     8.104880    1.524672   20.688865    ( 0.0000,  0.0000,  0.0000)
  47 Cu     9.410414    3.808746   20.676354    ( 0.0000,  0.0000,  0.0000)
  48 Cu     8.178749    4.576329   10.110487    ( 0.0000,  0.0000,  0.0000)
  49 Cu     9.419255    5.279619   12.092723    ( 0.0000,  0.0000,  0.0000)
  50 Cu    10.746661    6.046196   14.250951    ( 0.0000,  0.0000,  0.0000)
  51 Cu     8.119349    4.533795   16.421470    ( 0.0000,  0.0000,  0.0000)
  52 Cu     9.443401    5.278919   18.575751    ( 0.0000,  0.0000,  0.0000)
  53 Cu    10.738223    6.073159   20.676531    ( 0.0000,  0.0000,  0.0000)
  54 Cl     6.190025    2.575912   22.223010    ( 0.0000,  0.0000,  0.0000)
  55 Cl     4.805586    3.463658    8.320141    ( 0.0000,  0.0000,  0.0000)
  56 Cl     9.987382    4.827036   23.248776    ( 0.0000,  0.0000,  0.0000)
  57 Cl     0.887831    1.086560    7.131327    ( 0.0000,  0.0000,  0.0000)
  58 Cl     8.764290    5.612634    7.358718    ( 0.0000,  0.0000,  0.0000)
  59 Cl     2.315591    0.346867   23.343418    ( 0.0000,  0.0000,  0.0000)
  60 Cl     4.794321    4.773103   23.247928    ( 0.0000,  0.0000,  0.0000)
  61 Cl     6.159274    1.118547    7.306373    ( 0.0000,  0.0000,  0.0000)
  62 Cl     3.576521    5.481901    7.236605    ( 0.0000,  0.0000,  0.0000)
  63 Cl     7.475667    0.439918   23.327517    ( 0.0000,  0.0000,  0.0000)
  64 Cl     3.404379    2.575722   22.145708    ( 0.0000,  0.0000,  0.0000)
  65 Cl     7.329836    3.639546    8.460839    ( 0.0000,  0.0000,  0.0000)
  66 Cl     3.661414    1.090658    8.448022    ( 0.0000,  0.0000,  0.0000)
  67 Cl     7.355025    4.838602   23.362071    ( 0.0000,  0.0000,  0.0000)
  68 Cl     8.694362    2.552565   23.256846    ( 0.0000,  0.0000,  0.0000)
  69 Cl     2.373603    3.419955    7.341142    ( 0.0000,  0.0000,  0.0000)
  70 Cl     6.194511    5.465772    7.162047    ( 0.0000,  0.0000,  0.0000)
  71 Cl     4.874878    0.450567   23.324698    ( 0.0000,  0.0000,  0.0000)

Unit cell:
           periodic     x           y           z      points  spacing
  1. axis:    yes    7.851007    0.000000    0.000000    45     0.1511
  2. axis:    yes    3.925503    6.799171    0.000000    45     0.1511
  3. axis:    yes    0.000000    0.000000   30.683867   175     0.1753

  Lengths:   7.851007   7.851006  30.683867
  Angles:   90.000000  90.000000  60.000001

Effective grid spacing dv^(1/3) = 0.1666

     iter     time        total  log10-change:
                         energy  eigst   dens
iter:   1 16:32:44 -4721.390130  -1.41
iter:   2 16:33:40 -4723.491452  -2.40  -2.02
iter:   3 16:34:36 -4721.540508  -2.75  -1.81
iter:   4 16:35:35 -4720.550800  -2.93  -1.99
iter:   5 16:36:32 -4719.972063  -3.01  -2.16
iter:   6 16:37:29 -4719.894904  -4.08  -2.46
iter:   7 16:38:26 -4719.861343c -3.42  -2.56
iter:   8 16:39:23 -4719.834462c -4.12  -2.69
iter:   9 16:40:21 -4719.841535c -4.62  -2.83
iter:  10 16:41:18 -4719.829292c -4.76  -2.82
iter:  11 16:42:14 -4719.820180c -4.39  -2.93
iter:  12 16:43:10 -4719.818829c -5.50  -3.15
iter:  13 16:44:06 -4719.817051c -4.97  -3.24
iter:  14 16:45:01 -4719.816825c -5.99  -3.51
iter:  15 16:45:52 -4719.816741c -6.05  -3.62
iter:  16 16:46:45 -4719.816414c -5.68  -3.60
iter:  17 16:47:43 -4719.816423c -6.77  -3.87
iter:  18 16:48:42 -4719.816353c -6.79  -3.93
iter:  19 16:49:59 -4719.816449c -6.25  -3.95
iter:  20 16:51:04 -4719.816413c -7.10  -4.21c
iter:  21 16:52:01 -4719.816421c -7.27  -4.26c
iter:  22 16:52:59 -4719.816388c -7.61c -4.34c

Converged after 22 iterations.

Dipole moment: (-43.749546, -31.294990, 0.153901) |e|*Ang

Energy contributions relative to reference atoms: (reference = -2657147.488543)

Kinetic:       +663.918269
Potential:     -649.230873
External:        +0.000000
XC:            -4733.539559
Entropy (-ST):   -0.880368
Local:           -0.524041
--------------------------
Free energy:   -4720.256572
Extrapolated:  -4719.816388

Showing only first 2 kpts
 Kpt  Band  Eigenvalues  Occupancy
  0   358      1.30639    1.39733
  0   359      1.35289    1.18576
  0   360      1.42801    0.81453
  0   361      1.44844    0.71805

  1   358      1.17985    1.78302
  1   359      1.28205    1.49461
  1   360      1.38414    1.03172
  1   361      1.51737    0.43890


Fermi level: 1.39048

No gap

Forces in eV/Ang:
  0 Cu   -0.26925   -0.24613    0.48217
  1 Cu   -0.04790   -0.05104    0.29690
  2 Cu   -0.05039    0.06132   -0.11868
  3 Cu   -0.03673    0.04261   -0.11156
  4 Cu   -0.04206    0.00027    0.12114
  5 Cu   -0.00681    0.00876    0.03935
  6 Cu    0.16964    0.01661    0.45041
  7 Cu    0.00473    0.03589    0.05665
  8 Cu   -0.00065   -0.02066    0.07385
  9 Cu    0.03011   -0.00148    0.15050
 10 Cu   -0.03383   -0.00604    0.04311
 11 Cu   -0.04290    0.02156    0.11453
 12 Cu   -0.00027   -0.01385    0.01919
 13 Cu   -0.01712    0.00107   -0.09021
 14 Cu    0.00048    0.00145   -0.06753
 15 Cu    0.00879    0.00036    0.02589
 16 Cu    0.05147    0.03009   -0.09749
 17 Cu   -0.24898   -0.12777   -0.35504
 18 Cu   -0.02291    0.04846   -0.31725
 19 Cu    0.03309   -0.05541   -0.32421
 20 Cu   -0.44898   -0.40938   -0.28060
 21 Cu    0.28811    0.49307   -0.31201
 22 Cu   -0.34381   -0.66319   -0.84650
 23 Cu    0.12292    0.36924   -0.38668
 24 Cu    0.06988    0.01641   -0.21201
 25 Cu   -0.13013    0.13871   -0.01293
 26 Cu   -0.09901    0.06389    0.22247
 27 Cu   -0.03033    0.00440    0.44496
 28 Cu    0.00546   -0.00321   -0.00700
 29 Cu   -0.01659    0.02769    0.04578
 30 Cu    0.00609    0.02331   -0.05219
 31 Cu   -0.02193    0.01043    0.04695
 32 Cu    0.02433    0.11921   -0.15494
 33 Cu   -0.02639    0.01959   -0.06908
 34 Cu    0.02362   -0.03847    0.07697
 35 Cu   -0.05310    0.06792    0.11933
 36 Cu    0.02428   -0.02673   -0.14665
 37 Cu    0.12343   -0.26419    0.18176
 38 Cu   -0.03344   -0.06885    0.00337
 39 Cu    0.00408   -0.07399    0.10965
 40 Cu    0.01054    0.00488   -0.02828
 41 Cu   -0.00475    0.00629   -0.01154
 42 Cu    0.02269   -0.03821   -0.03303
 43 Cu    0.02726   -0.02263   -0.08818
 44 Cu   -0.00978   -0.01140   -0.09936
 45 Cu    0.08600   -0.05021   -0.19509
 46 Cu    0.08697   -0.06964    0.02709
 47 Cu    0.18183   -0.03688    0.10975
 48 Cu    0.71355    0.59286    1.21646
 49 Cu    0.22192    0.08551    0.27974
 50 Cu   -0.01956   -0.01227    0.01313
 51 Cu    0.03553    0.01902    0.02471
 52 Cu   -0.02542    0.05406    0.01189
 53 Cu    0.02485   -0.11083    0.11141
 54 Cl    0.31879    0.35993   -0.55702
 55 Cl   -0.31608    0.56004    0.68227
 56 Cl    0.35636   -0.15472    0.20086
 57 Cl    0.23090    0.52325   -0.12926
 58 Cl   -0.04699    0.47048   -1.04398
 59 Cl    0.02819   -0.03109    0.53853
 60 Cl   -0.05670   -0.15569    0.45429
 61 Cl    0.23169    0.34591   -0.38913
 62 Cl   -0.03322    0.63183   -0.66753
 63 Cl   -0.26456   -0.53394    0.44243
 64 Cl   -0.19924    0.36209    0.36017
 65 Cl    1.64489   -2.00059   -0.25461
 66 Cl   -1.13761   -1.12452   -0.06457
 67 Cl    0.00168   -0.00210    0.40565
 68 Cl    0.42916    0.32000    0.92372
 69 Cl   -0.96185   -0.92105   -0.67851
 70 Cl   -0.11346    1.19526   -1.39289
 71 Cl   -0.43134    0.19455    0.66592

System changes: positions 

[...]
 60 Cl    0.02640   -0.00137    0.00701
 61 Cl    0.00468    0.01002    0.00389
 62 Cl    0.01715    0.01395   -0.00626
 63 Cl    0.01727   -0.00083    0.00813
 64 Cl   -0.00383    0.00544    0.00018
 65 Cl    0.00937   -0.01235   -0.00235
 66 Cl   -0.00216   -0.00130   -0.00276
 67 Cl    0.01029   -0.01298    0.01575
 68 Cl    0.00853    0.00440    0.01347
 69 Cl   -0.01273   -0.00642    0.01334
 70 Cl    0.01617   -0.00804   -0.01924
 71 Cl    0.02477   -0.00421   -0.00457

System changes: positions 

Initializing position-dependent things.

Density initialized from wave functions
                                                
                                                
                                                
                                                
                                                
                                                
                                Cl              
                                                
                    Cl   ClCl    Cl             
                                                
                        Cl                      
                                   Cl           
                                Cu    Cu        
                   Cl    Cu Cl                  
                     Cu    Cu     Cu            
                Cu     Cu                       
                      Cu    CCu    Cu           
                 Cu    Cu     Cu                
                                                
            Cu    CCu   CCu    Cu               
             Cu     Cu    Cu    Cu    Cu        
                                                
         Cu    Cu    CCu   Cu     Cu            
                Cu     Cu    Cu                 
                      Cu    Cu     Cu           
                 Cu     Cu    Cu                
                                                
            Cu    CCu    Cu    Cu               
             Cu     Cu    Cu                    
                     Cl                         
         Cu    Cu     Cu      Cl                
                                                
                  Cl          Cl                
                                                
                                                
       Cl      Cl   Cl   Cl    Cl               
                                                
                                                
                                                
                                                
                                                
                                                
                                                

Positions:
   0 Cu     2.759354   -0.018357   10.036802    ( 0.0000,  0.0000,  0.0000)
   1 Cu     4.116193    2.230777    9.979821    ( 0.0000,  0.0000,  0.0000)
   2 Cu     0.185656   -0.025065   10.117372    ( 0.0000,  0.0000,  0.0000)
   3 Cu     1.496490    2.228249   10.038060    ( 0.0000,  0.0000,  0.0000)
   4 Cu     2.809508    2.989519   12.134103    ( 0.0000,  0.0000,  0.0000)
   5 Cu     1.516662    0.741538   12.153146    ( 0.0000,  0.0000,  0.0000)
   6 Cu     5.424759    2.989131   12.137087    ( 0.0000,  0.0000,  0.0000)
   7 Cu     4.120166    0.747964   12.152295    ( 0.0000,  0.0000,  0.0000)
   8 Cu     5.422326    1.484977   14.311676    ( 0.0000,  0.0000,  0.0000)
   9 Cu     6.722618    3.752545   14.301772    ( 0.0000,  0.0000,  0.0000)
  10 Cu     2.807580    1.478773   14.301703    ( 0.0000,  0.0000,  0.0000)
  11 Cu     4.117722    3.744273   14.294883    ( 0.0000,  0.0000,  0.0000)
  12 Cu     2.800604   -0.036468   16.455264    ( 0.0000,  0.0000,  0.0000)
  13 Cu     4.102343    2.234721   16.446833    ( 0.0000,  0.0000,  0.0000)
  14 Cu     0.181610   -0.033772   16.459526    ( 0.0000,  0.0000,  0.0000)
  15 Cu     1.486272    2.230694   16.418312    ( 0.0000,  0.0000,  0.0000)
  16 Cu     2.780602    2.992006   18.573946    ( 0.0000,  0.0000,  0.0000)
  17 Cu     1.492552    0.733735   18.575479    ( 0.0000,  0.0000,  0.0000)
  18 Cu     5.413447    2.980537   18.585668    ( 0.0000,  0.0000,  0.0000)
  19 Cu     4.117107    0.725122   18.600196    ( 0.0000,  0.0000,  0.0000)
  20 Cu     5.411785    1.478736   20.770069    ( 0.0000,  0.0000,  0.0000)
  21 Cu     6.708083    3.773606   20.707460    ( 0.0000,  0.0000,  0.0000)
  22 Cu     2.758630    1.447558   20.685278    ( 0.0000,  0.0000,  0.0000)
  23 Cu     4.111607    3.777814   20.700916    ( 0.0000,  0.0000,  0.0000)
  24 Cu     5.444388    4.532709   10.045255    ( 0.0000,  0.0000,  0.0000)
  25 Cu     2.795521    4.532258   10.035772    ( 0.0000,  0.0000,  0.0000)
  26 Cu     4.118799    5.255732   12.192861    ( 0.0000,  0.0000,  0.0000)
  27 Cu     6.729416    5.260153   12.133782    ( 0.0000,  0.0000,  0.0000)
  28 Cu     8.038928    6.017645   14.271408    ( 0.0000,  0.0000,  0.0000)
  29 Cu     5.426761    6.021799   14.300231    ( 0.0000,  0.0000,  0.0000)
  30 Cu     5.411036    4.509131   16.451980    ( 0.0000,  0.0000,  0.0000)
  31 Cu     2.800289    4.503827   16.426058    ( 0.0000,  0.0000,  0.0000)
  32 Cu     4.084778    5.242833   18.594803    ( 0.0000,  0.0000,  0.0000)
  33 Cu     6.732613    5.237616   18.593150    ( 0.0000,  0.0000,  0.0000)
  34 Cu     7.992033    6.016588   20.695818    ( 0.0000,  0.0000,  0.0000)
  35 Cu     5.412473    5.997914   20.660576    ( 0.0000,  0.0000,  0.0000)
  36 Cu     5.464645   -0.020053   10.019523    ( 0.0000,  0.0000,  0.0000)
  37 Cu     6.736070    2.227574   10.038116    ( 0.0000,  0.0000,  0.0000)
  38 Cu     8.041920    3.004123   12.184053    ( 0.0000,  0.0000,  0.0000)
  39 Cu     6.711460    0.741471   12.150605    ( 0.0000,  0.0000,  0.0000)
  40 Cu     8.037782    1.473590   14.285037    ( 0.0000,  0.0000,  0.0000)
  41 Cu     9.352149    3.752206   14.292081    ( 0.0000,  0.0000,  0.0000)
  42 Cu     5.411427   -0.033401   16.432014    ( 0.0000,  0.0000,  0.0000)
  43 Cu     6.729679    2.232521   16.444644    ( 0.0000,  0.0000,  0.0000)
  44 Cu     8.037559    2.998298   18.563758    ( 0.0000,  0.0000,  0.0000)
  45 Cu     6.697524    0.721762   18.592549    ( 0.0000,  0.0000,  0.0000)
  46 Cu     8.057031    1.439634   20.645413    ( 0.0000,  0.0000,  0.0000)
  47 Cu     9.335370    3.743458   20.692307    ( 0.0000,  0.0000,  0.0000)
  48 Cu     8.044295    4.525270   10.043278    ( 0.0000,  0.0000,  0.0000)
  49 Cu     9.358174    5.261809   12.129971    ( 0.0000,  0.0000,  0.0000)
  50 Cu    10.657324    6.024211   14.296320    ( 0.0000,  0.0000,  0.0000)
  51 Cu     8.028933    4.505037   16.420776    ( 0.0000,  0.0000,  0.0000)
  52 Cu     9.332774    5.250879   18.559998    ( 0.0000,  0.0000,  0.0000)
  53 Cu    10.666890    6.020700   20.689235    ( 0.0000,  0.0000,  0.0000)
  54 Cl     7.274836    2.392158   22.601041    ( 0.0000,  0.0000,  0.0000)
  55 Cl     4.144456    4.026842    8.127031    ( 0.0000,  0.0000,  0.0000)
  56 Cl     9.336749    5.431205   22.580593    ( 0.0000,  0.0000,  0.0000)
  57 Cl    -0.377429   -0.081314    5.985978    ( 0.0000,  0.0000,  0.0000)
  58 Cl     7.930306    5.464102    3.162730    ( 0.0000,  0.0000,  0.0000)
  59 Cl     4.385653    1.415341   26.538916    ( 0.0000,  0.0000,  0.0000)
  60 Cl     5.028047    6.539517   23.907990    ( 0.0000,  0.0000,  0.0000)
  61 Cl     6.287535    1.327269    5.151306    ( 0.0000,  0.0000,  0.0000)
  62 Cl     3.786676    3.338635    4.123849    ( 0.0000,  0.0000,  0.0000)
  63 Cl     9.173995    2.556429   27.427204    ( 0.0000,  0.0000,  0.0000)
  64 Cl     3.772339    2.346746   22.594058    ( 0.0000,  0.0000,  0.0000)
  65 Cl     8.049519    3.037480    8.148726    ( 0.0000,  0.0000,  0.0000)
  66 Cl     4.082468    0.325948    8.122682    ( 0.0000,  0.0000,  0.0000)
  67 Cl     6.094399    5.160302   24.939555    ( 0.0000,  0.0000,  0.0000)
  68 Cl     9.132403    3.616256   25.712180    ( 0.0000,  0.0000,  0.0000)
  69 Cl     2.350708    2.140431    4.875972    ( 0.0000,  0.0000,  0.0000)
  70 Cl     7.406714    5.086995    5.072225    ( 0.0000,  0.0000,  0.0000)
  71 Cl     6.097940    0.659931   25.782147    ( 0.0000,  0.0000,  0.0000)

Unit cell:
           periodic     x           y           z      points  spacing
  1. axis:    yes    7.851007    0.000000    0.000000    45     0.1511
  2. axis:    yes    3.925503    6.799171    0.000000    45     0.1511
  3. axis:    yes    0.000000    0.000000   30.683867   175     0.1753

  Lengths:   7.851007   7.851006  30.683867
  Angles:   90.000000  90.000000  60.000001

Effective grid spacing dv^(1/3) = 0.1666

     iter     time        total  log10-change:
                         energy  eigst   dens
iter:   1 00:00:11 -4738.007294  -3.73
iter:   2 00:00:57 -4738.023068  -4.14  -3.07
iter:   3 00:01:43 -4737.987053c -4.79  -3.00
iter:   4 00:02:30 -4737.986597c -5.13  -3.50
iter:   5 00:03:24 -4737.986528c -5.74  -3.76
iter:   6 00:04:17 -4737.986159c -5.65  -3.81
iter:   7 00:05:11 -4737.986085c -6.20  -3.96
iter:   8 00:06:06 -4737.986051c -6.58  -4.22c
iter:   9 00:07:00 -4737.986006c -6.30  -4.35c
iter:  10 00:07:55 -4737.985998c -7.28  -4.61c
iter:  11 00:08:49 -4737.986001c -7.75c -4.65c

Converged after 11 iterations.

Dipole moment: (20.632453, 2.833392, 0.033323) |e|*Ang

Energy contributions relative to reference atoms: (reference = -2657147.488543)

Kinetic:       +500.959042
Potential:     -531.321348
External:        +0.000000
XC:            -4706.743873
Entropy (-ST):   -0.536345
Local:           -0.611649
--------------------------
Free energy:   -4738.254174
Extrapolated:  -4737.986001

Showing only first 2 kpts
 Kpt  Band  Eigenvalues  Occupancy
  0   358      1.66142    1.38215
  0   359      1.72105    1.10407
  0   360      1.80432    0.69784
  0   361      1.95687    0.20878

  1   358      1.18132    1.99268
  1   359      1.25733    1.98440
  1   360      1.52180    1.80075
  1   361      1.76712    0.87474


Fermi level: 1.74194

No gap

Forces in eV/Ang:
  0 Cu   -0.00118   -0.00089    0.00244
  1 Cu    0.00344    0.00427    0.00010
  2 Cu    0.00322    0.00251    0.00370
  3 Cu    0.00072   -0.00133    0.00902
  4 Cu   -0.00306    0.00784    0.00228
  5 Cu   -0.00101   -0.00215   -0.00158
  6 Cu    0.00111    0.00546   -0.00602
  7 Cu   -0.00245   -0.00061   -0.00266
  8 Cu   -0.00063   -0.00038   -0.00585
  9 Cu    0.00200    0.00129   -0.00706
 10 Cu    0.00100    0.00127    0.00067
 11 Cu    0.00118   -0.00010    0.00213
 12 Cu   -0.00403   -0.00189    0.00061
 13 Cu   -0.00053   -0.00387    0.00272
 14 Cu   -0.00051   -0.00035   -0.00251
 15 Cu    0.00019    0.00165    0.00057
 16 Cu    0.00311    0.00083    0.00033
 17 Cu   -0.00340    0.00104    0.01086
 18 Cu    0.00072    0.00361   -0.00076
 19 Cu   -0.00081    0.00254   -0.00449
 20 Cu    0.00528   -0.00615   -0.01534
 21 Cu    0.00303   -0.00258   -0.00653
 22 Cu   -0.00253    0.00186   -0.00047
 23 Cu   -0.00363   -0.00050    0.00203
 24 Cu    0.00221    0.00466   -0.00541
 25 Cu   -0.00021    0.00672    0.00059
 26 Cu    0.00016    0.00147   -0.00452
 27 Cu   -0.00591    0.00157   -0.00149
 28 Cu   -0.00376    0.00247   -0.00022
 29 Cu   -0.00470   -0.00143   -0.00095
 30 Cu    0.00183    0.00090   -0.00276
 31 Cu    0.00131    0.00054    0.00163
 32 Cu   -0.00088   -0.00000    0.00064
 33 Cu   -0.00324    0.00172    0.00038
 34 Cu    0.00166   -0.00264   -0.01214
 35 Cu   -0.01198    0.00066    0.00273
 36 Cu    0.00286    0.00319   -0.00090
 37 Cu    0.00656   -0.00174    0.00428
 38 Cu   -0.00127    0.00229   -0.00076
 39 Cu   -0.00066   -0.00185   -0.00413
 40 Cu    0.00220   -0.00153   -0.00441
 41 Cu    0.00034    0.00355    0.00029
 42 Cu   -0.00289   -0.00316   -0.00185
 43 Cu   -0.00096    0.00033   -0.00569
 44 Cu    0.00206   -0.00239   -0.00090
 45 Cu    0.00286   -0.00203   -0.00255
 46 Cu   -0.00157    0.00509    0.00872
 47 Cu    0.00259    0.00351   -0.00516
 48 Cu   -0.00062    0.00226    0.00946
 49 Cu   -0.00031    0.00384   -0.00559
 50 Cu   -0.00088   -0.00347   -0.00210
 51 Cu   -0.00039    0.00178   -0.00162
 52 Cu    0.00522   -0.00085   -0.00939
 53 Cu    0.00147   -0.00299    0.00017
 54 Cl    0.00252    0.00690    0.00417
 55 Cl    0.00113   -0.00581    0.00629
 56 Cl    0.00405    0.00281    0.00686
 57 Cl    0.01325   -0.02012   -0.00594
 58 Cl   -0.01675   -0.01139    0.02145
 59 Cl   -0.01035   -0.01064   -0.00531
 60 Cl    0.00462    0.00556    0.00663
 61 Cl   -0.00616    0.01901   -0.00410
 62 Cl   -0.00981   -0.00514    0.01036
 63 Cl    0.00862    0.00375   -0.00116
 64 Cl   -0.00442    0.00576    0.00212
 65 Cl    0.00145   -0.00798    0.00240
 66 Cl   -0.00121   -0.00199    0.00352
 67 Cl   -0.00228   -0.01065    0.01084
 68 Cl    0.00489    0.00575    0.00064
 69 Cl    0.00028    0.00388    0.00640
 70 Cl    0.01053   -0.00342   -0.01240
 71 Cl    0.02501    0.00387    0.00021

Timing:                                      incl.     excl.
-------------------------------------------------------------------
Density initialized from wave functions:   549.355   549.349   0.5% |
 Symmetrize density:                         0.006     0.006   0.0% |
Forces:                                   2443.261  2443.261   2.0% ||
Hamiltonian:                               962.595     2.041   0.0% |
 Atomic:                                    56.374    18.698   0.0% |
  XC Correction:                            37.676    37.676   0.0% |
 Calculate atomic Hamiltonians:            224.150   224.150   0.2% |
 Communicate:                               12.039    12.039   0.0% |
 Initialize Hamiltonian:                     0.002     0.002   0.0% |
 Poisson:                                    0.560     0.560   0.0% |
 XC 3D grid:                               667.430    99.019   0.1% |
  VdW-DF integral:                         568.411    17.164   0.0% |
   Convolution:                             35.804    35.804   0.0% |
   FFT:                                     19.697    19.697   0.0% |
   gather:                                 209.650   209.650   0.2% |
   hmm1:                                    10.767    10.767   0.0% |
   hmm2:                                    27.324    27.324   0.0% |
   iFFT:                                    20.503    20.503   0.0% |
   potential:                              221.740     2.154   0.0% |
    collect:                                32.065    32.065   0.0% |
    p1:                                    111.214   111.214   0.1% |
    p2:                                     38.818    38.818   0.0% |
    sum:                                    37.488    37.488   0.0% |
   splines:                                  5.763     5.763   0.0% |
LCAO initialization:                       281.601     0.606   0.0% |
 LCAO eigensolver:                          17.862     0.002   0.0% |
  Blacs Orbital Layouts:                     1.267     0.001   0.0% |
   General diagonalize:                      1.252     1.252   0.0% |
   Redistribute coefs:                       0.009     0.009   0.0% |
   Send coefs to domains:                    0.006     0.006   0.0% |
  Calculate projections:                     0.031     0.031   0.0% |
  Distribute overlap matrix:                15.909     0.001   0.0% |
   Scalapack redistribute:                   0.014     0.014   0.0% |
   blocked summation:                       15.895    15.895   0.0% |
  Potential matrix:                          0.504     0.504   0.0% |
  SparseAtomicCorrection:                    0.028     0.028   0.0% |
  Sum over cells:                            0.121     0.121   0.0% |
 LCAO to grid:                             260.300   260.300   0.2% |
 Set positions (LCAO WFS):                   2.833     0.069   0.0% |
  Basic WFS set positions:                   0.003     0.003   0.0% |
  Basis functions set positions:             0.000     0.000   0.0% |
  P tci:                                     0.113     0.113   0.0% |
  ST tci:                                    0.510     0.510   0.0% |
  Scalapack redistribute:                    0.028     0.028   0.0% |
  blocked summation:                         1.926     1.926   0.0% |
  mktci:                                     0.184     0.184   0.0% |
PWDescriptor:                                0.931     0.931   0.0% |
Redistribute:                                0.261     0.261   0.0% |
SCF-cycle:                               116039.455  4870.218   4.0% |-|
 Davidson:                               85789.540 22209.258  18.3% |------|
  Apply H:                                8605.091  8480.527   7.0% |--|
   HMM T:                                  124.564   124.564   0.1% |
  Subspace diag:                         14479.524     0.737   0.0% |
   calc_h_matrix:                        10621.789  2247.274   1.9% ||
    Apply H:                              8374.515  8240.757   6.8% |--|
     HMM T:                                133.758   133.758   0.1% |
   diagonalize:                            429.266   429.266   0.4% |
   rotate_psi:                            3427.732  3427.732   2.8% ||
  calc. matrices:                        31042.648 14210.550  11.7% |----|
   Apply H:                              16832.098 16582.430  13.7% |----|
    HMM T:                                 249.668   249.668   0.2% |
  diagonalize:                            3016.122  3016.122   2.5% ||
  rotate_psi:                             6436.897  6436.897   5.3% |-|
 Density:                                 9292.014     0.105   0.0% |
  Atomic density matrices:                  42.309    42.309   0.0% |
  Mix:                                    4378.364  4378.364   3.6% ||
  Multipole moments:                         2.180     2.180   0.0% |
  Pseudo density:                         4869.056  4868.966   4.0% |-|
   Symmetrize density:                       0.090     0.090   0.0% |
 Hamiltonian:                            15300.072    33.544   0.0% |
  Atomic:                                  881.512   279.567   0.2% |
   XC Correction:                          601.945   601.945   0.5% |
  Calculate atomic Hamiltonians:          3705.856  3705.856   3.1% ||
  Communicate:                             182.536   182.536   0.2% |
  Poisson:                                   9.188     9.188   0.0% |
  XC 3D grid:                            10487.436  1575.104   1.3% ||
   VdW-DF integral:                       8912.332   278.204   0.2% |
    Convolution:                           575.780   575.780   0.5% |
    FFT:                                   316.465   316.465   0.3% |
    gather:                               3194.906  3194.906   2.6% ||
    hmm1:                                  179.693   179.693   0.1% |
    hmm2:                                  435.238   435.238   0.4% |
    iFFT:                                  325.202   325.202   0.3% |
    potential:                            3606.824    34.926   0.0% |
     collect:                              536.254   536.254   0.4% |
     p1:                                  1769.437  1769.437   1.5% ||
     p2:                                   624.460   624.460   0.5% |
     sum:                                  641.747   641.747   0.5% |
    splines:                                 0.021     0.021   0.0% |
 Orthonormalize:                           787.610     0.049   0.0% |
  calc_s_matrix:                            63.312    63.312   0.1% |
  inverse-cholesky:                        299.012   299.012   0.2% |
  projections:                             321.942   321.942   0.3% |
  rotate_psi_s:                            103.295   103.295   0.1% |
Set symmetry:                                0.001     0.001   0.0% |
Other:                                     855.216   855.216   0.7% |
-------------------------------------------------------------------
Total:                                             121132.677 100.0%

Memory usage: 1.30 GiB
Date: Wed Oct 19 00:09:10 2022
