
  ___ ___ ___ _ _ _  
 |   |   |_  | | | | 
 | | | | | . | | | | 
 |__ |  _|___|_____|  22.1.0
 |___|_|             

User:   thorkong@node428.cluster
Date:   Thu Oct 20 19:44:53 2022
Arch:   x86_64
Pid:    2508
Python: 3.10.5
gpaw:   /groups/kemi/thorkong/miniconda3/envs/gpaw22/lib/python3.10/site-packages/gpaw
_gpaw:  /groups/kemi/thorkong/miniconda3/envs/gpaw22/lib/python3.10/site-packages/
        _gpaw.cpython-310-x86_64-linux-gnu.so
ase:    /groups/kemi/thorkong/miniconda3/envs/gpaw22/lib/python3.10/site-packages/ase (version 3.22.1)
numpy:  /groups/kemi/thorkong/miniconda3/envs/gpaw22/lib/python3.10/site-packages/numpy (version 1.23.0)
scipy:  /groups/kemi/thorkong/miniconda3/envs/gpaw22/lib/python3.10/site-packages/scipy (version 1.8.1)
libxc:  5.2.3
units:  Angstrom and eV
cores: 32
OpenMP: True
OMP_NUM_THREADS: 1

Input parameters:
  basis: dzp
  kpts: [4 4 1]
  mode: {ecut: 600.0,
         name: pw}
  xc: BEEF-vdW

System changes: positions, numbers, cell, pbc, initial_charges, initial_magmoms 

Initialize ...

Cu-setup:
  name: Copper
  id: f1c4d45d90492f1bbfdcb091e8418fdf
  Z: 29.0
  valence: 11
  core: 18
  charge: 0.0
  file: /groups/kemi/thorkong/miniconda3/envs/gpaw22/share/gpaw/Cu.PBE.gz
  compensation charges: gauss, rc=0.33, lmax=2
  cutoffs: 2.06(filt), 2.43(core),
  valence states:
                energy  radius
    4s(1.00)    -4.609   1.164
    4p(0.00)    -0.698   1.164
    3d(10.00)    -5.039   1.058
    *s          22.603   1.164
    *p          26.513   1.164
    *d          22.172   1.058

  LCAO basis set for Cu:
    Name: dzp
    File: /groups/kemi/thorkong/miniconda3/envs/gpaw22/share/gpaw/Cu.dzp.basis.gz
    Number of radial functions: 5
    Number of spherical harmonics: 15
      l=0, rc=8.9688 Bohr: 4s-sz confined orbital
      l=2, rc=5.1719 Bohr: 3d-sz confined orbital
      l=0, rc=5.3281 Bohr: 4s-dz split-valence wave
      l=2, rc=3.1406 Bohr: 3d-dz split-valence wave
      l=1, rc=8.9688 Bohr: p-type Gaussian polarization

Cl-setup:
  name: Chlorine
  id: 726897f06f34e53cf8e33b5885a02604
  Z: 17.0
  valence: 7
  core: 10
  charge: 0.0
  file: /groups/kemi/thorkong/miniconda3/envs/gpaw22/share/gpaw/Cl.PBE.gz
  compensation charges: gauss, rc=0.25, lmax=2
  cutoffs: 1.40(filt), 1.49(core),
  valence states:
                energy  radius
    3s(2.00)   -20.689   0.794
    3p(5.00)    -8.594   0.794
    *s           6.523   0.794
    *p          18.617   0.794
    *d           0.000   0.794

  LCAO basis set for Cl:
    Name: dzp
    File: /groups/kemi/thorkong/miniconda3/envs/gpaw22/share/gpaw/Cl.dzp.basis.gz
    Number of radial functions: 5
    Number of spherical harmonics: 13
      l=0, rc=5.1719 Bohr: 3s-sz confined orbital
      l=1, rc=6.2656 Bohr: 3p-sz confined orbital
      l=0, rc=2.8281 Bohr: 3s-dz split-valence wave
      l=1, rc=3.5156 Bohr: 3p-dz split-valence wave
      l=2, rc=6.2656 Bohr: d-type Gaussian polarization

Reference energy: -4397389.073122

Spin-paired calculation

Convergence criteria:
 Maximum [total energy] change in last 3 cyles: 0.0005 eV / electron
 Maximum integral of absolute [dens]ity change: 0.0001 electrons / valence electron
 Maximum integral of absolute [eigenst]ate change: 4e-08 eV^2 / valence electron
 Maximum number of scf [iter]ations: 333
 (Square brackets indicate name in SCF output, whereas a 'c' in
 the SCF output indicates the quantity has converged.)

Symmetries present (total): 1

  ( 1  0  0)
  ( 0  1  0)
  ( 0  0  1)

16 k-points: 4 x 4 x 1 Monkhorst-Pack grid
8 k-points in the irreducible part of the Brillouin zone
       k-points in crystal coordinates                weights
   0:     0.12500000   -0.37500000    0.00000000          2/16
   1:     0.12500000   -0.12500000    0.00000000          2/16
   2:     0.12500000    0.12500000    0.00000000          2/16
   3:     0.12500000    0.37500000    0.00000000          2/16
   4:     0.37500000   -0.37500000    0.00000000          2/16
   5:     0.37500000   -0.12500000    0.00000000          2/16
   6:     0.37500000    0.12500000    0.00000000          2/16
   7:     0.37500000    0.37500000    0.00000000          2/16

Wave functions: Plane wave expansion
  Cutoff energy: 600.000 eV
  Number of coefficients (min, max): 96699, 96750
  Pulay-stress correction: 0.000000 eV/Ang^3 (de/decut=0.000000)
  Using FFTW library
  ScaLapack parameters: grid=2x2, blocksize=64
  Wavefunction extrapolation:
    Improved wavefunction reuse through dual PAW basis 

Occupation numbers: Fermi-Dirac: width=0.1000 eV
 

Eigensolver
   Davidson(niter=2) 

Densities:
  Coarse grid: 70*42*192 grid
  Fine grid: 140*84*384 grid
  Total Charge: 0.000000 

Density mixing:
  Method: separate
  Backend: pulay
  Linear mixing parameter: 0.05
  Mixing with 5 old densities
  Damping of long wave oscillations: 50 

Hamiltonian:
  XC and Coulomb potentials evaluated on a 140*84*384 grid
  Using the BEEF-vdW Exchange-Correlation functional
  External potential:
    NoExternalPotential
 

XC parameters: BEEF-vdW with 2 nearest neighbor stencil

Memory estimate:
  Process memory now: 343.10 MiB
  Calculator: 2152.41 MiB
    Density: 70.86 MiB
      Arrays: 27.99 MiB
      Localized functions: 32.10 MiB
      Mixer: 10.77 MiB
    Hamiltonian: 19.09 MiB
      Arrays: 18.30 MiB
      XC: 0.00 MiB
      Poisson: 0.00 MiB
      vbar: 0.78 MiB
    Wavefunctions: 2062.47 MiB
      Arrays psit_nG: 978.78 MiB
      Eigensolver: 1053.25 MiB
      Projections: 4.57 MiB
      Projectors: 3.69 MiB
      PW-descriptor: 22.18 MiB

Total number of cores used: 32
Parallelization over k-points: 8
Domain decomposition: 1 x 1 x 4
                      2 x 2 x 8 (xc only)

Number of atoms: 102
Number of atomic orbitals: 1518
Number of bands in calculation: 663
Number of valence electrons: 1098
Bands to converge: occupied

... initialized

Initializing position-dependent things.

Density initialized from atomic densities
Creating initial wave functions:
  663 bands from LCAO basis set

      .----------------------------.  
     /|                            |  
    / |                            |  
   /  |                            |  
  /   |                            |  
 *    |                            |  
 |    |                            |  
 |    |                            |  
 |    |                            |  
 |    |                            |  
 |    |                            |  
 |    |                        Cl  |  
 |    |                            |  
 |    |       Cl    Cu       Cl   Cu  
 |    |       Cu            Cu     |  
 |    | Cu    Cu       Cu          |  
 |    | Cu  Cu   Cu    Cu Cu    Cu |  
 |    |    Cu    Cu       Cu   Cu  |  
 |    Cu   Cu       Cu    Cu       |  
 |   Cu    Cu  Cu   Cu   Cu  Cu    |  
 |    |  Cu   Cu    Cu Cu    Cu   Cu  
 |    | Cu    Cu       Cu    Cu    |  
 | Cu | Cu    Cu Cu    Cu   Cu     |  
 |    | Cu  Cu   Cu    Cu Cu    Cu |  
 |    |    Cu    Cu       Cu   Cu  |  
 |    Cu   Cu       Cu    Cu       |  
 |   CCu   Cu Cu    Cu   Cu  Cu    |  
 |    |       Cu    Cu       Cu   Cu  
 |    | CCu   Cu       Cu    Cu    |  
 | Cu | Cu    Cu Cu   Cu    Cu     |  
 |    |     Cu   Cu       Cu    Cu |  
 |    |    Cu             Cu       |  
 |   Cu    Cl       Cu    Cl       |  
 |    |                            |  
 |    |  Cl                        |  
 |    |                            |  
 |    |                            |  
 |    |                            |  
 |    |                            |  
 |    |                            |  
 |    |                            |  
 |    .----------------------------.  
 |   /                            /   
 |  /                            /    
 | /                            /     
 |/                            /      
 *----------------------------*       

Positions:
   0 Cu     3.239035   -0.040208   10.098196    ( 0.0000,  0.0000,  0.0000)
   1 Cu     1.318132    1.766229   10.638681    ( 0.0000,  0.0000,  0.0000)
   2 Cu     7.174634    1.803871   10.634444    ( 0.0000,  0.0000,  0.0000)
   3 Cu     9.053986   -0.058200   10.134118    ( 0.0000,  0.0000,  0.0000)
   4 Cu    11.347512   -0.074984   11.248179    ( 0.0000,  0.0000,  0.0000)
   5 Cu     9.628843    1.807067   11.779796    ( 0.0000,  0.0000,  0.0000)
   6 Cu     3.775612    1.788161   11.790195    ( 0.0000,  0.0000,  0.0000)
   7 Cu     5.514202   -0.071095   11.223227    ( 0.0000,  0.0000,  0.0000)
   8 Cu     7.829898   -0.071767   12.383697    ( 0.0000,  0.0000,  0.0000)
   9 Cu     6.095249    1.781224   12.938593    ( 0.0000,  0.0000,  0.0000)
  10 Cu     0.238850    1.778254   12.940836    ( 0.0000,  0.0000,  0.0000)
  11 Cu     1.994398   -0.072029   12.364048    ( 0.0000,  0.0000,  0.0000)
  12 Cu     4.324235   -0.073166   13.508671    ( 0.0000,  0.0000,  0.0000)
  13 Cu     2.580150    1.778592   14.108618    ( 0.0000,  0.0000,  0.0000)
  14 Cu     8.434234    1.781528   14.106469    ( 0.0000,  0.0000,  0.0000)
  15 Cu    10.161203   -0.070528   13.515093    ( 0.0000,  0.0000,  0.0000)
  16 Cu     0.829237   -0.071991   14.691247    ( 0.0000,  0.0000,  0.0000)
  17 Cu    10.786990    1.780374   15.249133    ( 0.0000,  0.0000,  0.0000)
  18 Cu     4.934681    1.777414   15.244063    ( 0.0000,  0.0000,  0.0000)
  19 Cu     6.680661   -0.072028   14.697645    ( 0.0000,  0.0000,  0.0000)
  20 Cu     9.029990   -0.069021   15.855785    ( 0.0000,  0.0000,  0.0000)
  21 Cu     7.284012    1.781354   16.439735    ( 0.0000,  0.0000,  0.0000)
  22 Cu     1.433427    1.778443   16.442723    ( 0.0000,  0.0000,  0.0000)
  23 Cu     3.179270   -0.071532   15.849739    ( 0.0000,  0.0000,  0.0000)
  24 Cu     5.525672   -0.071043   17.018699    ( 0.0000,  0.0000,  0.0000)
  25 Cu     3.780138    1.779060   17.599778    ( 0.0000,  0.0000,  0.0000)
  26 Cu     9.630595    1.781029   17.608397    ( 0.0000,  0.0000,  0.0000)
  27 Cu    11.374888   -0.070558   17.017280    ( 0.0000,  0.0000,  0.0000)
  28 Cu     2.024409   -0.072227   18.208390    ( 0.0000,  0.0000,  0.0000)
  29 Cu     0.276541    1.779323   18.765166    ( 0.0000,  0.0000,  0.0000)
  30 Cu     6.129621    1.781102   18.758964    ( 0.0000,  0.0000,  0.0000)
  31 Cu     7.876589   -0.069129   18.207497    ( 0.0000,  0.0000,  0.0000)
  32 Cu    10.227978   -0.069614   19.352181    ( 0.0000,  0.0000,  0.0000)
  33 Cu     8.485759    1.779223   19.944361    ( 0.0000,  0.0000,  0.0000)
  34 Cu     2.648960    1.780877   19.936801    ( 0.0000,  0.0000,  0.0000)
  35 Cu     4.378334   -0.071227   19.350338    ( 0.0000,  0.0000,  0.0000)
  36 Cu     6.712091   -0.073075   20.528129    ( 0.0000,  0.0000,  0.0000)
  37 Cu     4.985482    1.777251   21.066258    ( 0.0000,  0.0000,  0.0000)
  38 Cu    10.818411    1.779681   21.085003    ( 0.0000,  0.0000,  0.0000)
  39 Cu     0.863164   -0.070062   20.520507    ( 0.0000,  0.0000,  0.0000)
  40 Cu     3.177710   -0.078821   21.664647    ( 0.0000,  0.0000,  0.0000)
  41 Cu     1.463032    1.776179   22.203972    ( 0.0000,  0.0000,  0.0000)
  42 Cu     7.296075    1.779819   22.231575    ( 0.0000,  0.0000,  0.0000)
  43 Cu     9.028033   -0.060811   21.673600    ( 0.0000,  0.0000,  0.0000)
  44 Cu    11.440346   -0.043302   22.817098    ( 0.0000,  0.0000,  0.0000)
  45 Cu     9.566481    1.847942   23.335198    ( 0.0000,  0.0000,  0.0000)
  46 Cu     3.744734    1.835396   23.289562    ( 0.0000,  0.0000,  0.0000)
  47 Cu     5.635819   -0.092631   22.755863    ( 0.0000,  0.0000,  0.0000)
  48 Cu     3.185358    3.649076   10.103429    ( 0.0000,  0.0000,  0.0000)
  49 Cu     1.323194    5.501847   10.635049    ( 0.0000,  0.0000,  0.0000)
  50 Cu     7.170569    5.466582   10.639883    ( 0.0000,  0.0000,  0.0000)
  51 Cu     9.071435    3.667852   10.063640    ( 0.0000,  0.0000,  0.0000)
  52 Cu    11.345569    3.634223   11.211312    ( 0.0000,  0.0000,  0.0000)
  53 Cu     9.624484    5.472756   11.783188    ( 0.0000,  0.0000,  0.0000)
  54 Cu     3.774671    5.489615   11.773558    ( 0.0000,  0.0000,  0.0000)
  55 Cu     5.481812    3.629794   11.238119    ( 0.0000,  0.0000,  0.0000)
  56 Cu     7.848670    3.630748   12.355673    ( 0.0000,  0.0000,  0.0000)
  57 Cu     6.091130    5.476277   12.937282    ( 0.0000,  0.0000,  0.0000)
  58 Cu     0.243675    5.478956   12.935943    ( 0.0000,  0.0000,  0.0000)
  59 Cu     1.981477    3.630592   12.373432    ( 0.0000,  0.0000,  0.0000)
  60 Cu     4.310983    3.632791   13.519056    ( 0.0000,  0.0000,  0.0000)
  61 Cu     2.583025    5.481758   14.106297    ( 0.0000,  0.0000,  0.0000)
  62 Cu     8.432666    5.478702   14.108768    ( 0.0000,  0.0000,  0.0000)
  63 Cu    10.177075    3.630749   13.513147    ( 0.0000,  0.0000,  0.0000)
  64 Cu     0.829923    3.629860   14.694993    ( 0.0000,  0.0000,  0.0000)
  65 Cu    10.787053    5.479003   15.243539    ( 0.0000,  0.0000,  0.0000)
  66 Cu     4.935919    5.481891   15.247928    ( 0.0000,  0.0000,  0.0000)
  67 Cu     6.681651    3.629984   14.688993    ( 0.0000,  0.0000,  0.0000)
  68 Cu     9.030599    3.629379   15.850914    ( 0.0000,  0.0000,  0.0000)
  69 Cu     7.285315    5.478552   16.442975    ( 0.0000,  0.0000,  0.0000)
  70 Cu     1.432356    5.481412   16.439817    ( 0.0000,  0.0000,  0.0000)
  71 Cu     3.177762    3.631899   15.857065    ( 0.0000,  0.0000,  0.0000)
  72 Cu     5.523367    3.630361   17.015263    ( 0.0000,  0.0000,  0.0000)
  73 Cu     3.778958    5.482614   17.608094    ( 0.0000,  0.0000,  0.0000)
  74 Cu     9.631867    5.480649   17.599597    ( 0.0000,  0.0000,  0.0000)
  75 Cu    11.377708    3.630016   17.016524    ( 0.0000,  0.0000,  0.0000)
  76 Cu     2.023330    3.631825   18.211829    ( 0.0000,  0.0000,  0.0000)
  77 Cu     0.277772    5.481788   18.758823    ( 0.0000,  0.0000,  0.0000)
  78 Cu     6.128231    5.479492   18.765458    ( 0.0000,  0.0000,  0.0000)
  79 Cu     7.874557    3.628603   18.212989    ( 0.0000,  0.0000,  0.0000)
  80 Cu    10.228968    3.629662   19.344846    ( 0.0000,  0.0000,  0.0000)
  81 Cu     8.500242    5.481570   19.936445    ( 0.0000,  0.0000,  0.0000)
  82 Cu     2.634037    5.480959   19.943592    ( 0.0000,  0.0000,  0.0000)
  83 Cu     4.375412    3.631597   19.346901    ( 0.0000,  0.0000,  0.0000)
  84 Cu     6.714163    3.631053   20.514639    ( 0.0000,  0.0000,  0.0000)
  85 Cu     4.968436    5.482765   21.087094    ( 0.0000,  0.0000,  0.0000)
  86 Cu    10.836031    5.481015   21.066440    ( 0.0000,  0.0000,  0.0000)
  87 Cu     0.865195    3.628830   20.510426    ( 0.0000,  0.0000,  0.0000)
  88 Cu     3.174158    3.643179   21.649880    ( 0.0000,  0.0000,  0.0000)
  89 Cu     1.448468    5.482545   22.231956    ( 0.0000,  0.0000,  0.0000)
  90 Cu     7.311831    5.481092   22.205770    ( 0.0000,  0.0000,  0.0000)
  91 Cu     9.029023    3.623009   21.640962    ( 0.0000,  0.0000,  0.0000)
  92 Cu    11.499990    3.611143   22.813894    ( 0.0000,  0.0000,  0.0000)
  93 Cu     9.600346    5.422394   23.294813    ( 0.0000,  0.0000,  0.0000)
  94 Cu     3.713360    5.431666   23.331815    ( 0.0000,  0.0000,  0.0000)
  95 Cu     5.641359    3.650310   22.819085    ( 0.0000,  0.0000,  0.0000)
  96 Cl     4.375623    3.622772   24.814188    ( 0.0000,  0.0000,  0.0000)
  97 Cl    10.246638    3.649707   24.822502    ( 0.0000,  0.0000,  0.0000)
  98 Cl    10.308130   -0.085350   24.694466    ( 0.0000,  0.0000,  0.0000)
  99 Cl     2.572760    1.830577    8.654728    ( 0.0000,  0.0000,  0.0000)
 100 Cl     2.631952    5.538090    8.666128    ( 0.0000,  0.0000,  0.0000)
 101 Cl     8.479049    5.563320    8.652054    ( 0.0000,  0.0000,  0.0000)

Unit cell:
           periodic     x           y           z      points  spacing
  1. axis:    yes   11.703590    0.000000    0.000000    70     0.1672
  2. axis:    yes    0.000000    7.402000    0.000000    42     0.1762
  3. axis:    no     0.000000    0.000000   33.459128   192     0.1743

  Lengths:  11.703590   7.402000  33.459128
  Angles:   90.000000  90.000000  90.000000

Effective grid spacing dv^(1/3) = 0.1725

     iter     time        total  log10-change:
                         energy  eigst   dens
iter:   1 20:05:52 -7688.098579
iter:   2 20:09:37 -7784.749134  +0.55  -1.02
iter:   3 20:13:24 -7584.224648  -0.07  -0.97
iter:   4 20:17:11 -7537.922398  -1.15  -1.22
iter:   5 20:21:00 -7699.390531  -0.90  -1.36
iter:   6 20:24:48 -7515.068206  -1.56  -1.13
iter:   7 20:28:36 -7509.879386  -1.96  -1.52
iter:   8 20:32:25 -7496.780767  -1.89  -1.54
iter:   9 20:36:14 -7494.426027  -1.98  -1.69
iter:  10 20:40:01 -7494.012922  -2.23  -1.75
iter:  11 20:43:49 -7498.678591  -1.83  -1.80
iter:  12 20:47:37 -7494.160181  -2.21  -1.92
iter:  13 20:51:28 -7491.843459  -2.30  -1.98
iter:  14 20:55:17 -7491.686097  -2.71  -2.18
iter:  15 20:59:07 -7491.408354c -2.81  -2.32
iter:  16 21:02:56 -7491.182343c -3.39  -2.59
iter:  17 21:06:45 -7490.940378c -3.17  -2.65
iter:  18 21:10:34 -7490.916197c -3.94  -2.85
iter:  19 21:14:22 -7490.917363c -3.88  -2.95
iter:  20 21:18:11 -7490.948948c -4.04  -2.98
iter:  21 21:22:00 -7490.914784c -4.28  -2.93
iter:  22 21:25:50 -7490.894411c -4.13  -3.20
iter:  23 21:29:40 -7490.892161c -4.77  -3.40
iter:  24 21:33:31 -7490.891525c -5.24  -3.63
iter:  25 21:37:20 -7490.891010c -6.06  -3.78
iter:  26 21:41:12 -7490.890800c -6.36  -3.92
iter:  27 21:45:05 -7490.890792c -6.27  -3.95
iter:  28 21:48:57 -7490.890799c -6.29  -3.98
iter:  29 21:52:49 -7490.890703c -6.96  -4.07c
iter:  30 21:56:43 -7490.890751c -6.53  -4.20c
iter:  31 22:00:39 -7490.890738c -7.14  -4.33c
iter:  32 22:04:36 -7490.890706c -7.17  -4.53c
iter:  33 22:08:32 -7490.890701c -7.03  -4.70c
iter:  34 22:12:27 -7490.890706c -7.46c -4.79c

Converged after 34 iterations.

Dipole moment: (19.273649, 62.408382, 0.012716) |e|*Ang

Energy contributions relative to reference atoms: (reference = -4397389.073122)

Kinetic:       +747.694481
Potential:     -819.756404
External:        +0.000000
XC:            -7417.106571
Entropy (-ST):   -0.974175
Local:           -1.235124
--------------------------
Free energy:   -7491.377793
Extrapolated:  -7490.890706

Showing only first 2 kpts
 Kpt  Band  Eigenvalues  Occupancy
  0   547      0.26124    1.00193
  0   548      0.39847    0.40573
  0   549      0.43693    0.29533
  0   550      0.46980    0.22176

  1   547     -0.00963    1.87552
  1   548      0.08099    1.71783
  1   549      0.10498    1.65456
  1   550      0.17247    1.41841


Fermi level: 0.26162

No gap

Forces in eV/Ang:
  0 Cu   -0.05173    0.01213   -0.11352
  1 Cu   -0.02352    0.03330    0.08136
  2 Cu    0.36752   -0.02734    0.10695
  3 Cu   -0.13111    0.18100   -0.01543
  4 Cu   -0.01385    0.06141   -0.00784
  5 Cu   -0.19505   -0.08348   -0.49807
  6 Cu   -0.03058   -0.02302   -0.05984
  7 Cu    0.03532    0.06023    0.04665
  8 Cu    0.06597    0.03433   -0.19888
  9 Cu   -0.00170    0.01086    0.10762
 10 Cu    0.07494    0.01757   -0.03231
 11 Cu    0.01668    0.03557   -0.03302
 12 Cu   -0.00746    0.01367    0.06794
 13 Cu   -0.01487   -0.00686    0.06961
 14 Cu    0.00068    0.01076    0.08880
 15 Cu    0.02129    0.02572    0.10338
 16 Cu   -0.00357   -0.00654    0.02031
 17 Cu   -0.01227   -0.01370    0.04125
 18 Cu   -0.02743    0.01233    0.05898
 19 Cu    0.01264    0.01042   -0.01166
 20 Cu   -0.00584   -0.01207    0.02404
 21 Cu   -0.00177   -0.00016    0.04950
 22 Cu   -0.01728   -0.00369    0.00379
 23 Cu    0.00391    0.00146    0.05125
 24 Cu    0.00641   -0.00208   -0.06377
 25 Cu    0.00878    0.00502   -0.03024
 26 Cu    0.00114   -0.00984   -0.06620
 27 Cu    0.02365    0.00440   -0.01333
 28 Cu    0.00746    0.01501   -0.03517
 29 Cu    0.01013   -0.00170   -0.03679
 30 Cu   -0.00501   -0.02587   -0.00033
 31 Cu    0.00894   -0.01337   -0.02544
 32 Cu    0.01423    0.00968   -0.09008
 33 Cu   -0.01259   -0.03095   -0.09701
 34 Cu   -0.03326   -0.03986   -0.12673
 35 Cu   -0.00912   -0.01016   -0.12269
 36 Cu    0.10275    0.00602   -0.33197
 37 Cu   -0.09765    0.05151    0.17892
 38 Cu   -0.01598    0.01559    0.00987
 39 Cu   -0.08216   -0.00047    0.00328
 40 Cu    0.19944    0.02598    0.50559
 41 Cu   -0.03904   -0.03693    0.00276
 42 Cu   -0.04823    0.00864   -0.04238
 43 Cu    0.00838   -0.02414    0.03483
 44 Cu    0.50322   -0.04406   -0.67906
 45 Cu    0.06049   -0.09884    0.21193
 46 Cu    0.18842   -0.26893    0.14721
 47 Cu   -0.46855    0.06846    0.17868
 48 Cu    0.01738   -0.02436   -0.10278
 49 Cu   -0.01063   -0.02663    0.05974
 50 Cu   -0.06324    0.01630    0.06230
 51 Cu   -0.16775   -0.19831    0.08635
 52 Cu    0.06992   -0.00984    0.05138
 53 Cu    0.05398    0.03213    0.14399
 54 Cu   -0.00832   -0.01897    0.00300
 55 Cu    0.08237    0.00366   -0.00843
 56 Cu   -0.01822    0.00808   -0.11416
 57 Cu    0.08823   -0.00229   -0.02613
 58 Cu    0.03999   -0.00523   -0.04711
 59 Cu    0.02830    0.00887   -0.09859
 60 Cu    0.01972    0.00772    0.05116
 61 Cu   -0.00906    0.00629    0.06016
 62 Cu   -0.00425   -0.00967    0.01855
 63 Cu   -0.00169   -0.00576    0.13426
 64 Cu    0.01673    0.00652    0.03076
 65 Cu   -0.00799    0.01726    0.08249
 66 Cu   -0.02307   -0.00819    0.04545
 67 Cu    0.00306   -0.01064   -0.00149
 68 Cu   -0.00808    0.00626    0.06220
 69 Cu   -0.01200   -0.00029    0.01766
 70 Cu   -0.00475    0.00346    0.01105
 71 Cu   -0.00600   -0.00522    0.01033
 72 Cu    0.02123    0.00125   -0.03254
 73 Cu    0.01125   -0.00933   -0.06462
 74 Cu    0.00827    0.00369   -0.01455
 75 Cu    0.00996   -0.00489   -0.02296
 76 Cu    0.00936   -0.01344   -0.09205
 77 Cu   -0.00619   -0.00174   -0.05001
 78 Cu    0.01086    0.02529   -0.00951
 79 Cu    0.02568    0.01167   -0.05910
 80 Cu    0.01601   -0.00936   -0.09416
 81 Cu   -0.03540    0.02943   -0.05991
 82 Cu   -0.01030    0.04143   -0.15075
 83 Cu    0.01582    0.00728   -0.04813
 84 Cu   -0.10367    0.00551    0.01903
 85 Cu   -0.05062   -0.06234    0.07202
 86 Cu   -0.06528   -0.00229    0.09458
 87 Cu   -0.07351    0.00428    0.05784
 88 Cu   -0.04732   -0.03807   -0.17016
 89 Cu   -0.06650    0.06226   -0.05347
 90 Cu   -0.01269   -0.02306    0.01249
 91 Cu    0.00211    0.02510    0.01806
 92 Cu    0.00886    0.03318   -0.06268
 93 Cu    0.01854    0.08657    0.24797
 94 Cu    0.22423    0.24156    0.07946
 95 Cu    0.07910   -0.03309   -0.11058
 96 Cl   -0.09864    0.00238    0.26915
 97 Cl    0.00124   -0.04318    0.10874
 98 Cl   -0.38606    0.03085    0.91661
 99 Cl    0.00465   -0.04195   -0.20553
100 Cl   -0.03133   -0.04775   -0.21616
101 Cl    0.05531   -0.06104   -0.33484

System changes: positions 

Initializing position-dependent things.

Density initialized from wave functions
      .----------------------------.  
     /|                            |  
    / |                            |  
   /  |                            |  
  /   |                            |  
 *    |                            |  
 |    |                            |  
 |    |                            |  
 |    |                            |  
 |    |                            |  
 |    |                            |  
 |    |                        Cl  |  
 |    |                            |  
 |    |       Cl    Cu       Cl   Cu  
 |    |       Cu            Cu     |  
 |    | Cu             Cu          |  
 |    | Cu  Cu   Cu    Cu Cu    Cu |  
 |    |    Cu    Cu       Cu   Cu  |  
 |    Cu   Cu       Cu    Cu       |  
 |   Cu    Cu  Cu   Cu   Cu  Cu    |  
 |    |  Cu   Cu    Cu Cu    Cu   Cu  
 |    | Cu    Cu       Cu    Cu    |  
 | Cu | Cu    Cu Cu    Cu   Cu     |  
 |    | Cu  Cu   Cu    Cu Cu    Cu |  
 |    |    Cu    Cu       Cu   Cu  |  
 |    Cu   Cu       Cu    Cu       |  
 |   CCu   Cu Cu    Cu   Cu  Cu    |  
 |    |       Cu    Cu Cu    Cu   Cu  
 |    | CCu   Cu       Cu    Cu    |  
 | Cu | Cu    Cu Cu   Cu    Cu     |  
 |    |     Cu   Cu       Cu    Cu |  
 |    |    Cu             Cu       |  
 |   Cu    Cl       Cu    Cl       |  
 |    |                            |  
 |    |  Cl                        |  
 |    |                            |  
 |    |                            |  
 |    |                            |  
 |    |                            |  
 |    |                            |  
 |    |                            |  
 |    .----------------------------.  
 |   /                            /   
 |  /                            /    
 | /                            /     
 |/                            /      
 *----------------------------*       

Positions:
   0 Cu     3.233862   -0.038995   10.086844    ( 0.0000,  0.0000,  0.0000)
   1 Cu     1.315780    1.769559   10.646817    ( 0.0000,  0.0000,  0.0000)
   2 Cu     7.211386    1.801137   10.645139    ( 0.0000,  0.0000,  0.0000)
   3 Cu     9.040875   -0.040100   10.132575    ( 0.0000,  0.0000,  0.0000)
   4 Cu    11.346127   -0.068843   11.247395    ( 0.0000,  0.0000,  0.0000)
   5 Cu     9.609338    1.798719   11.729989    ( 0.0000,  0.0000,  0.0000)
   6 Cu     3.772554    1.785859   11.784211    ( 0.0000,  0.0000,  0.0000)
   7 Cu     5.517734   -0.065072   11.227892    ( 0.0000,  0.0000,  0.0000)
   8 Cu     7.836495   -0.068334   12.363809    ( 0.0000,  0.0000,  0.0000)
   9 Cu     6.095079    1.782310   12.949355    ( 0.0000,  0.0000,  0.0000)
  10 Cu     0.246344    1.780011   12.937605    ( 0.0000,  0.0000,  0.0000)
  11 Cu     1.996066   -0.068472   12.360746    ( 0.0000,  0.0000,  0.0000)
  12 Cu     4.323489   -0.071799   13.515465    ( 0.0000,  0.0000,  0.0000)
  13 Cu     2.578663    1.777906   14.115579    ( 0.0000,  0.0000,  0.0000)
  14 Cu     8.434302    1.782604   14.115349    ( 0.0000,  0.0000,  0.0000)
  15 Cu    10.163332   -0.067956   13.525431    ( 0.0000,  0.0000,  0.0000)
  16 Cu     0.828880   -0.072645   14.693278    ( 0.0000,  0.0000,  0.0000)
  17 Cu    10.785763    1.779004   15.253258    ( 0.0000,  0.0000,  0.0000)
  18 Cu     4.931938    1.778647   15.249961    ( 0.0000,  0.0000,  0.0000)
  19 Cu     6.681925   -0.070986   14.696479    ( 0.0000,  0.0000,  0.0000)
  20 Cu     9.029406   -0.070228   15.858189    ( 0.0000,  0.0000,  0.0000)
  21 Cu     7.283835    1.781338   16.444685    ( 0.0000,  0.0000,  0.0000)
  22 Cu     1.431699    1.778074   16.443102    ( 0.0000,  0.0000,  0.0000)
  23 Cu     3.179661   -0.071386   15.854864    ( 0.0000,  0.0000,  0.0000)
  24 Cu     5.526313   -0.071251   17.012322    ( 0.0000,  0.0000,  0.0000)
  25 Cu     3.781016    1.779562   17.596754    ( 0.0000,  0.0000,  0.0000)
  26 Cu     9.630709    1.780045   17.601777    ( 0.0000,  0.0000,  0.0000)
  27 Cu    11.377253   -0.070118   17.015947    ( 0.0000,  0.0000,  0.0000)
  28 Cu     2.025155   -0.070726   18.204873    ( 0.0000,  0.0000,  0.0000)
  29 Cu     0.277554    1.779153   18.761487    ( 0.0000,  0.0000,  0.0000)
  30 Cu     6.129120    1.778515   18.758931    ( 0.0000,  0.0000,  0.0000)
  31 Cu     7.877483   -0.070466   18.204953    ( 0.0000,  0.0000,  0.0000)
  32 Cu    10.229401   -0.068646   19.343173    ( 0.0000,  0.0000,  0.0000)
  33 Cu     8.484500    1.776128   19.934660    ( 0.0000,  0.0000,  0.0000)
  34 Cu     2.645634    1.776891   19.924128    ( 0.0000,  0.0000,  0.0000)
  35 Cu     4.377422   -0.072243   19.338069    ( 0.0000,  0.0000,  0.0000)
  36 Cu     6.722366   -0.072473   20.494932    ( 0.0000,  0.0000,  0.0000)
  37 Cu     4.975717    1.782402   21.084150    ( 0.0000,  0.0000,  0.0000)
  38 Cu    10.816813    1.781240   21.085990    ( 0.0000,  0.0000,  0.0000)
  39 Cu     0.854948   -0.070109   20.520835    ( 0.0000,  0.0000,  0.0000)
  40 Cu     3.197654   -0.076223   21.715206    ( 0.0000,  0.0000,  0.0000)
  41 Cu     1.459128    1.772486   22.204248    ( 0.0000,  0.0000,  0.0000)
  42 Cu     7.291252    1.780683   22.227337    ( 0.0000,  0.0000,  0.0000)
  43 Cu     9.028871   -0.063225   21.677083    ( 0.0000,  0.0000,  0.0000)
  44 Cu    11.490668   -0.047708   22.749192    ( 0.0000,  0.0000,  0.0000)
  45 Cu     9.572530    1.838058   23.356391    ( 0.0000,  0.0000,  0.0000)
  46 Cu     3.763576    1.808503   23.304283    ( 0.0000,  0.0000,  0.0000)
  47 Cu     5.588964   -0.085785   22.773731    ( 0.0000,  0.0000,  0.0000)
  48 Cu     3.187096    3.646640   10.093151    ( 0.0000,  0.0000,  0.0000)
  49 Cu     1.322131    5.499184   10.641023    ( 0.0000,  0.0000,  0.0000)
  50 Cu     7.164245    5.468212   10.646113    ( 0.0000,  0.0000,  0.0000)
  51 Cu     9.054660    3.648021   10.072275    ( 0.0000,  0.0000,  0.0000)
  52 Cu    11.352561    3.633239   11.216450    ( 0.0000,  0.0000,  0.0000)
  53 Cu     9.629882    5.475969   11.797587    ( 0.0000,  0.0000,  0.0000)
  54 Cu     3.773839    5.487718   11.773858    ( 0.0000,  0.0000,  0.0000)
  55 Cu     5.490049    3.630160   11.237276    ( 0.0000,  0.0000,  0.0000)
  56 Cu     7.846848    3.631556   12.344257    ( 0.0000,  0.0000,  0.0000)
  57 Cu     6.099953    5.476048   12.934669    ( 0.0000,  0.0000,  0.0000)
  58 Cu     0.247674    5.478433   12.931232    ( 0.0000,  0.0000,  0.0000)
  59 Cu     1.984307    3.631479   12.363573    ( 0.0000,  0.0000,  0.0000)
  60 Cu     4.312955    3.633563   13.524172    ( 0.0000,  0.0000,  0.0000)
  61 Cu     2.582119    5.482387   14.112313    ( 0.0000,  0.0000,  0.0000)
  62 Cu     8.432241    5.477735   14.110623    ( 0.0000,  0.0000,  0.0000)
  63 Cu    10.176906    3.630173   13.526573    ( 0.0000,  0.0000,  0.0000)
  64 Cu     0.831596    3.630512   14.698069    ( 0.0000,  0.0000,  0.0000)
  65 Cu    10.786254    5.480729   15.251788    ( 0.0000,  0.0000,  0.0000)
  66 Cu     4.933612    5.481072   15.252473    ( 0.0000,  0.0000,  0.0000)
  67 Cu     6.681957    3.628920   14.688844    ( 0.0000,  0.0000,  0.0000)
  68 Cu     9.029791    3.630005   15.857134    ( 0.0000,  0.0000,  0.0000)
  69 Cu     7.284115    5.478523   16.444741    ( 0.0000,  0.0000,  0.0000)
  70 Cu     1.431881    5.481758   16.440922    ( 0.0000,  0.0000,  0.0000)
  71 Cu     3.177162    3.631377   15.858098    ( 0.0000,  0.0000,  0.0000)
  72 Cu     5.525490    3.630486   17.012009    ( 0.0000,  0.0000,  0.0000)
  73 Cu     3.780083    5.481681   17.601632    ( 0.0000,  0.0000,  0.0000)
  74 Cu     9.632694    5.481018   17.598142    ( 0.0000,  0.0000,  0.0000)
  75 Cu    11.378704    3.629527   17.014228    ( 0.0000,  0.0000,  0.0000)
  76 Cu     2.024266    3.630481   18.202624    ( 0.0000,  0.0000,  0.0000)
  77 Cu     0.277153    5.481614   18.753822    ( 0.0000,  0.0000,  0.0000)
  78 Cu     6.129317    5.482021   18.764507    ( 0.0000,  0.0000,  0.0000)
  79 Cu     7.877125    3.629770   18.207079    ( 0.0000,  0.0000,  0.0000)
  80 Cu    10.230569    3.628726   19.335430    ( 0.0000,  0.0000,  0.0000)
  81 Cu     8.496702    5.484513   19.930454    ( 0.0000,  0.0000,  0.0000)
  82 Cu     2.633007    5.485102   19.928517    ( 0.0000,  0.0000,  0.0000)
  83 Cu     4.376994    3.632325   19.342088    ( 0.0000,  0.0000,  0.0000)
  84 Cu     6.703796    3.631604   20.516542    ( 0.0000,  0.0000,  0.0000)
  85 Cu     4.963374    5.476531   21.094296    ( 0.0000,  0.0000,  0.0000)
  86 Cu    10.829503    5.480786   21.075898    ( 0.0000,  0.0000,  0.0000)
  87 Cu     0.857844    3.629258   20.516210    ( 0.0000,  0.0000,  0.0000)
  88 Cu     3.169426    3.639372   21.632864    ( 0.0000,  0.0000,  0.0000)
  89 Cu     1.441818    5.488771   22.226609    ( 0.0000,  0.0000,  0.0000)
  90 Cu     7.310562    5.478786   22.207019    ( 0.0000,  0.0000,  0.0000)
  91 Cu     9.029234    3.625519   21.642768    ( 0.0000,  0.0000,  0.0000)
  92 Cu    11.500876    3.614461   22.807626    ( 0.0000,  0.0000,  0.0000)
  93 Cu     9.602200    5.431051   23.319610    ( 0.0000,  0.0000,  0.0000)
  94 Cu     3.735783    5.455822   23.339761    ( 0.0000,  0.0000,  0.0000)
  95 Cu     5.649269    3.647001   22.808027    ( 0.0000,  0.0000,  0.0000)
  96 Cl     4.365759    3.623010   24.841103    ( 0.0000,  0.0000,  0.0000)
  97 Cl    10.246762    3.645389   24.833376    ( 0.0000,  0.0000,  0.0000)
  98 Cl    10.269524   -0.082265   24.786127    ( 0.0000,  0.0000,  0.0000)
  99 Cl     2.573225    1.826382    8.634175    ( 0.0000,  0.0000,  0.0000)
 100 Cl     2.628819    5.533315    8.644512    ( 0.0000,  0.0000,  0.0000)
 101 Cl     8.484580    5.557216    8.618570    ( 0.0000,  0.0000,  0.0000)

Unit cell:
           periodic     x           y           z      points  spacing
  1. axis:    yes   11.703590    0.000000    0.000000    70     0.1672
  2. axis:    yes    0.000000    7.402000    0.000000    42     0.1762
  3. axis:    no     0.000000    0.000000   33.459128   192     0.1743

  Lengths:  11.703590   7.402000  33.459128
  Angles:   90.000000  90.000000  90.000000

Effective grid spacing dv^(1/3) = 0.1725

     iter     time        total  log10-change:
                         energy  eigst   dens
iter:   1 22:18:48 -7494.110712  -2.03
iter:   2 22:22:45 -7496.682560  -2.27  -2.17
iter:   3 22:26:40 -7491.914609  -2.63  -2.02
iter:   4 22:30:34 -7491.242636  -3.69  -2.45
iter:   5 22:34:28 -7491.183077  -3.38  -2.77
iter:   6 22:38:22 -7491.128631c -3.96  -2.97
iter:   7 22:42:16 -7491.117755c -4.42  -3.24
iter:   8 22:46:10 -7491.117535c -4.62  -3.35
iter:   9 22:50:04 -7491.119482c -4.82  -3.46
iter:  10 22:53:57 -7491.116343c -5.48  -3.52
iter:  11 22:57:50 -7491.112929c -5.09  -3.63
iter:  12 23:01:43 -7491.112465c -5.61  -3.85
iter:  13 23:05:35 -7491.112388c -5.80  -3.95
iter:  14 23:09:27 -7491.112307c -6.64  -4.10c
iter:  15 23:13:20 -7491.112323c -6.21  -4.21c
iter:  16 23:17:13 -7491.112175c -6.87  -4.22c
iter:  17 23:21:06 -7491.112139c -7.03  -4.43c
iter:  18 23:25:00 -7491.112118c -7.68c -4.59c

Converged after 18 iterations.

Dipole moment: (17.377484, 60.671708, -0.037053) |e|*Ang

Energy contributions relative to reference atoms: (reference = -4397389.073122)

Kinetic:       +740.337425
Potential:     -813.952172
External:        +0.000000
XC:            -7415.787230
Entropy (-ST):   -0.975352
Local:           -1.222464
--------------------------
Free energy:   -7491.599793
Extrapolated:  -7491.112118

Showing only first 2 kpts
 Kpt  Band  Eigenvalues  Occupancy
  0   547      0.21094    0.97231
  0   548      0.34144    0.40833
  0   549      0.37649    0.30608
  0   550      0.41354    0.22182

  1   547     -0.06294    1.87208
  1   548      0.02876    1.70801
  1   549      0.05310    1.64193
  1   550      0.10842    1.45013


Fermi level: 0.20540

No gap

Forces in eV/Ang:
  0 Cu   -0.05273   -0.01422   -0.12085
  1 Cu    0.04384    0.02481   -0.04225
  2 Cu    0.18866   -0.01568    0.06934
  3 Cu   -0.11437   -0.04398   -0.18389
  4 Cu   -0.02602    0.03216   -0.00266
  5 Cu    0.00115    0.00291   -0.16738
  6 Cu   -0.00601    0.00061   -0.03369
  7 Cu   -0.00485    0.06918    0.03225
  8 Cu    0.04300    0.01026   -0.03518
  9 Cu   -0.00020    0.00690    0.04583
 10 Cu   -0.03180    0.01724    0.00095
 11 Cu    0.02716    0.00847   -0.02035
 12 Cu   -0.00432   -0.00018    0.03699
 13 Cu   -0.00181    0.00509    0.02652
 14 Cu    0.02087    0.00577   -0.00456
 15 Cu    0.01107    0.05868    0.03389
 16 Cu    0.00642   -0.00542   -0.00178
 17 Cu    0.01049   -0.00411    0.01578
 18 Cu   -0.01330    0.00822    0.04127
 19 Cu    0.02682   -0.00161   -0.03364
 20 Cu   -0.01322   -0.01403    0.01539
 21 Cu   -0.00997   -0.00413    0.02591
 22 Cu   -0.01091   -0.00524   -0.00491
 23 Cu   -0.00626    0.00201    0.02913
 24 Cu    0.01452   -0.00100   -0.04342
 25 Cu    0.01339    0.01036   -0.02674
 26 Cu    0.00553   -0.00910   -0.04343
 27 Cu    0.01835    0.00447   -0.01566
 28 Cu   -0.01293    0.00550   -0.03109
 29 Cu   -0.00414    0.00626   -0.01551
 30 Cu   -0.03295    0.01136    0.00945
 31 Cu    0.02457   -0.00838   -0.07870
 32 Cu    0.00253    0.00088   -0.04299
 33 Cu    0.01007    0.01257   -0.04314
 34 Cu   -0.01853   -0.06845   -0.03887
 35 Cu   -0.02101    0.00054   -0.00434
 36 Cu   -0.03288    0.00183   -0.02104
 37 Cu   -0.05569   -0.00571    0.03286
 38 Cu   -0.07765    0.04642   -0.00246
 39 Cu    0.10191   -0.00405   -0.17894
 40 Cu    0.00832    0.00227    0.19372
 41 Cu    0.08100    0.04119   -0.00723
 42 Cu   -0.00250   -0.06972   -0.04432
 43 Cu    0.03056   -0.00531    0.06729
 44 Cu   -0.20223   -0.05467    0.35618
 45 Cu    0.10375   -0.19126    0.20974
 46 Cu    0.13249   -0.05373    0.21323
 47 Cu   -0.19802    0.02993    0.01413
 48 Cu    0.00935   -0.01696   -0.12516
 49 Cu    0.04559   -0.00486   -0.03522
 50 Cu    0.05075    0.03174   -0.08984
 51 Cu   -0.13233   -0.02115   -0.03082
 52 Cu   -0.02082   -0.01279    0.04599
 53 Cu    0.02188    0.01460    0.03955
 54 Cu    0.00574    0.00146   -0.01249
 55 Cu    0.03109   -0.04735   -0.00563
 56 Cu    0.01939    0.00806    0.00242
 57 Cu    0.03176    0.01644    0.01971
 58 Cu    0.02248    0.00718    0.01553
 59 Cu    0.05493    0.00772   -0.03391
 60 Cu    0.00699    0.00240    0.00903
 61 Cu   -0.00673    0.00399    0.02215
 62 Cu   -0.00659    0.00360    0.01186
 63 Cu   -0.01283   -0.06224    0.03128
 64 Cu    0.01471    0.00751   -0.00358
 65 Cu    0.00666    0.00808    0.03601
 66 Cu    0.00396   -0.00340    0.00192
 67 Cu    0.01779    0.00358   -0.00407
 68 Cu   -0.01110    0.01094    0.03489
 69 Cu   -0.00988    0.00309   -0.00256
 70 Cu   -0.00131    0.00523    0.00039
 71 Cu   -0.00313   -0.00426    0.00110
 72 Cu    0.01784    0.00038   -0.01161
 73 Cu    0.01533   -0.01306   -0.04829
 74 Cu    0.00370    0.00557   -0.00971
 75 Cu    0.00971   -0.00584   -0.02137
 76 Cu   -0.00618   -0.00540   -0.04073
 77 Cu   -0.01365   -0.00745   -0.00444
 78 Cu   -0.01850   -0.01177   -0.01634
 79 Cu   -0.00515    0.00650   -0.01296
 80 Cu   -0.00206   -0.00041   -0.03992
 81 Cu   -0.00578   -0.01016   -0.02557
 82 Cu   -0.00348    0.06869   -0.05043
 83 Cu    0.00809   -0.00400   -0.04956
 84 Cu   -0.02442   -0.00317   -0.04238
 85 Cu   -0.02416    0.00927    0.00501
 86 Cu   -0.10357   -0.03448    0.02737
 87 Cu   -0.03280    0.00876   -0.01828
 88 Cu   -0.02176   -0.01805   -0.00942
 89 Cu    0.08599   -0.02245   -0.04635
 90 Cu   -0.02675    0.07595   -0.00089
 91 Cu    0.00986    0.00064    0.04627
 92 Cu   -0.05259    0.02317    0.02945
 93 Cu    0.07448    0.18408    0.27979
 94 Cu    0.16343    0.04088    0.12637
 95 Cu   -0.05215   -0.02536    0.07141
 96 Cl   -0.07730    0.00440    0.02415
 97 Cl    0.01950   -0.03186    0.01065
 98 Cl    0.00146    0.03557   -0.13317
 99 Cl   -0.02147   -0.03279   -0.07736
100 Cl   -0.04690   -0.04050   -0.08067
101 Cl    0.04636   -0.04772   -0.04679

System changes: positions 

Initializing position-dependent things.

Density initialized from wave functions
      .----------------------------.  
     /|                            |  
    / |                            |  
   /  |                            |  
  /   |                            |  
 *    |                            |  
 |    |                            |  
 |    |                            |  
 |    |                            |  
 |    |                            |  
 |    |                            |  
 |    |                        Cl  |  
 |    |                            |  
 |    |       Cl    Cu       Cl   Cu  
 |    |       Cu            Cu     |  
 |    | Cu             Cu          |  
 |    | Cu  Cu   Cu    Cu Cu    Cu |  
 |    |    Cu    Cu       Cu   Cu  |  
 |    Cu   Cu       Cu    Cu       |  
 |   Cu    Cu  Cu   Cu   Cu  Cu    |  
 |    |  Cu   Cu    Cu Cu    Cu   Cu  
 |    | Cu    Cu       Cu    Cu    |  
 | Cu | Cu    Cu Cu    Cu   Cu     |  
 |    | Cu  Cu   Cu    Cu Cu    Cu |  
 |    |    Cu    Cu       Cu   Cu  |  
 |    Cu   Cu       Cu    Cu       |  
 |   CCu   Cu Cu    Cu   Cu  Cu    |  
 |    |  Cu   Cu    Cu Cu    Cu   Cu  
 |    | Cu    Cu       Cu    Cu    |  
 | Cu | Cu    Cu Cu   Cu    Cu     |  
 |    |     Cu   Cu       Cu    Cu |  
 |    |    Cu             Cu       |  
 |   Cu    Cl       Cu    Cl       |  
 |    |                            |  
 |    |  Cl                        |  
 |    |                            |  
 |    |                            |  
 |    |                            |  
 |    |                            |  
 |    |                            |  
 |    |                            |  
 |    .----------------------------.  
 |   /                            /   
 |  /                            /    
 | /                            /     
 |/                            /      
 *----------------------------*       

Positions:
   0 Cu     3.226473   -0.040227   10.070058    ( 0.0000,  0.0000,  0.0000)
   1 Cu     1.319982    1.773297   10.644479    ( 0.0000,  0.0000,  0.0000)
   2 Cu     7.243144    1.798591   10.655991    ( 0.0000,  0.0000,  0.0000)
   3 Cu     9.024298   -0.039723   10.111621    ( 0.0000,  0.0000,  0.0000)
   4 Cu    11.342822   -0.063466   11.246869    ( 0.0000,  0.0000,  0.0000)
   5 Cu     9.603775    1.796608   11.696795    ( 0.0000,  0.0000,  0.0000)
   6 Cu     3.770992    1.785255   11.778708    ( 0.0000,  0.0000,  0.0000)
   7 Cu     5.518223   -0.055601   11.232849    ( 0.0000,  0.0000,  0.0000)
   8 Cu     7.843214   -0.066189   12.354085    ( 0.0000,  0.0000,  0.0000)
   9 Cu     6.095007    1.783397   12.957605    ( 0.0000,  0.0000,  0.0000)
  10 Cu     0.244985    1.782447   12.936768    ( 0.0000,  0.0000,  0.0000)
  11 Cu     1.999581   -0.066490   12.357513    ( 0.0000,  0.0000,  0.0000)
  12 Cu     4.322790   -0.071420   13.521571    ( 0.0000,  0.0000,  0.0000)
  13 Cu     2.578027    1.778273   14.120566    ( 0.0000,  0.0000,  0.0000)
  14 Cu     8.436650    1.783562   14.117432    ( 0.0000,  0.0000,  0.0000)
  15 Cu    10.165188   -0.060663   13.532226    ( 0.0000,  0.0000,  0.0000)
  16 Cu     0.829491   -0.073440   14.693672    ( 0.0000,  0.0000,  0.0000)
  17 Cu    10.786575    1.778146   15.256222    ( 0.0000,  0.0000,  0.0000)
  18 Cu     4.929655    1.779924   15.256283    ( 0.0000,  0.0000,  0.0000)
  19 Cu     6.685284   -0.070862   14.692387    ( 0.0000,  0.0000,  0.0000)
  20 Cu     9.027762   -0.072145   15.860607    ( 0.0000,  0.0000,  0.0000)
  21 Cu     7.282671    1.780873   16.449018    ( 0.0000,  0.0000,  0.0000)
  22 Cu     1.429979    1.777382   16.442665    ( 0.0000,  0.0000,  0.0000)
  23 Cu     3.179076   -0.071119   15.859608    ( 0.0000,  0.0000,  0.0000)
  24 Cu     5.528119   -0.071423   17.005620    ( 0.0000,  0.0000,  0.0000)
  25 Cu     3.782766    1.780864   17.592891    ( 0.0000,  0.0000,  0.0000)
  26 Cu     9.631358    1.778743   17.595002    ( 0.0000,  0.0000,  0.0000)
  27 Cu    11.379989   -0.069491   17.013812    ( 0.0000,  0.0000,  0.0000)
  28 Cu     2.023931   -0.069675   18.200380    ( 0.0000,  0.0000,  0.0000)
  29 Cu     0.277387    1.779802   18.758685    ( 0.0000,  0.0000,  0.0000)
  30 Cu     6.125300    1.779027   18.759976    ( 0.0000,  0.0000,  0.0000)
  31 Cu     7.880483   -0.071791   18.195436    ( 0.0000,  0.0000,  0.0000)
  32 Cu    10.230099   -0.068265   19.335751    ( 0.0000,  0.0000,  0.0000)
  33 Cu     8.485255    1.776627   19.927020    ( 0.0000,  0.0000,  0.0000)
  34 Cu     2.642597    1.768095   19.916097    ( 0.0000,  0.0000,  0.0000)
  35 Cu     4.374813   -0.072479   19.334006    ( 0.0000,  0.0000,  0.0000)
  36 Cu     6.721697   -0.072093   20.482900    ( 0.0000,  0.0000,  0.0000)
  37 Cu     4.966658    1.783268   21.093034    ( 0.0000,  0.0000,  0.0000)
  38 Cu    10.807689    1.786871   21.086003    ( 0.0000,  0.0000,  0.0000)
  39 Cu     0.863914   -0.070575   20.500980    ( 0.0000,  0.0000,  0.0000)
  40 Cu     3.204401   -0.075212   21.751556    ( 0.0000,  0.0000,  0.0000)
  41 Cu     1.467020    1.776001   22.203523    ( 0.0000,  0.0000,  0.0000)
  42 Cu     7.289566    1.773161   22.221158    ( 0.0000,  0.0000,  0.0000)
  43 Cu     9.032522   -0.064522   21.685603    ( 0.0000,  0.0000,  0.0000)
  44 Cu    11.482800   -0.055090   22.769094    ( 0.0000,  0.0000,  0.0000)
  45 Cu     9.585863    1.813849   23.385961    ( 0.0000,  0.0000,  0.0000)
  46 Cu     3.783847    1.794665   23.332353    ( 0.0000,  0.0000,  0.0000)
  47 Cu     5.553213   -0.080450   22.780520    ( 0.0000,  0.0000,  0.0000)
  48 Cu     3.188646    3.644038   10.076196    ( 0.0000,  0.0000,  0.0000)
  49 Cu     1.326905    5.497866   10.638838    ( 0.0000,  0.0000,  0.0000)
  50 Cu     7.168059    5.472227   10.637914    ( 0.0000,  0.0000,  0.0000)
  51 Cu     9.035011    3.639877   10.071358    ( 0.0000,  0.0000,  0.0000)
  52 Cu    11.352280    3.631527   11.223076    ( 0.0000,  0.0000,  0.0000)
  53 Cu     9.633897    5.478535   11.806197    ( 0.0000,  0.0000,  0.0000)
  54 Cu     3.774236    5.487327   11.772552    ( 0.0000,  0.0000,  0.0000)
  55 Cu     5.495919    3.624988   11.236402    ( 0.0000,  0.0000,  0.0000)
  56 Cu     7.848478    3.632690   12.341195    ( 0.0000,  0.0000,  0.0000)
  57 Cu     6.106069    5.477814   12.936105    ( 0.0000,  0.0000,  0.0000)
  58 Cu     0.251347    5.479081   12.931590    ( 0.0000,  0.0000,  0.0000)
  59 Cu     1.991258    3.632598   12.356915    ( 0.0000,  0.0000,  0.0000)
  60 Cu     4.314310    3.634056   13.526671    ( 0.0000,  0.0000,  0.0000)
  61 Cu     2.581104    5.483016   14.116538    ( 0.0000,  0.0000,  0.0000)
  62 Cu     8.431382    5.477854   14.112487    ( 0.0000,  0.0000,  0.0000)
  63 Cu    10.175426    3.623065   13.533977    ( 0.0000,  0.0000,  0.0000)
  64 Cu     0.833724    3.631540   14.698568    ( 0.0000,  0.0000,  0.0000)
  65 Cu    10.786763    5.482133   15.258210    ( 0.0000,  0.0000,  0.0000)
  66 Cu     4.933381    5.480454   15.254014    ( 0.0000,  0.0000,  0.0000)
  67 Cu     6.684030    3.629009   14.688347    ( 0.0000,  0.0000,  0.0000)
  68 Cu     9.028317    3.631407   15.862838    ( 0.0000,  0.0000,  0.0000)
  69 Cu     7.282664    5.478860   16.444971    ( 0.0000,  0.0000,  0.0000)
  70 Cu     1.431597    5.482442   16.441288    ( 0.0000,  0.0000,  0.0000)
  71 Cu     3.176637    3.630750   15.858522    ( 0.0000,  0.0000,  0.0000)
  72 Cu     5.528099    3.630565   17.009765    ( 0.0000,  0.0000,  0.0000)
  73 Cu     3.782121    5.479953   17.594362    ( 0.0000,  0.0000,  0.0000)
  74 Cu     9.633348    5.481747   17.596635    ( 0.0000,  0.0000,  0.0000)
  75 Cu    11.380078    3.628732   17.011175    ( 0.0000,  0.0000,  0.0000)
  76 Cu     2.023851    3.629487   18.195397    ( 0.0000,  0.0000,  0.0000)
  77 Cu     0.275451    5.480733   18.751867    ( 0.0000,  0.0000,  0.0000)
  78 Cu     6.127571    5.481447   18.762407    ( 0.0000,  0.0000,  0.0000)
  79 Cu     7.877299    3.630834   18.203909    ( 0.0000,  0.0000,  0.0000)
  80 Cu    10.230806    3.628407   19.328232    ( 0.0000,  0.0000,  0.0000)
  81 Cu     8.495025    5.484239   19.925856    ( 0.0000,  0.0000,  0.0000)
  82 Cu     2.632318    5.493969   19.918496    ( 0.0000,  0.0000,  0.0000)
  83 Cu     4.378357    3.632092   19.335157    ( 0.0000,  0.0000,  0.0000)
  84 Cu     6.698049    3.631412   20.512372    ( 0.0000,  0.0000,  0.0000)
  85 Cu     4.959203    5.475746   21.096956    ( 0.0000,  0.0000,  0.0000)
  86 Cu    10.816050    5.476874   21.081710    ( 0.0000,  0.0000,  0.0000)
  87 Cu     0.852041    3.630359   20.515860    ( 0.0000,  0.0000,  0.0000)
  88 Cu     3.165618    3.636248   21.626849    ( 0.0000,  0.0000,  0.0000)
  89 Cu     1.449466    5.488083   22.219880    ( 0.0000,  0.0000,  0.0000)
  90 Cu     7.307209    5.486582   22.207284    ( 0.0000,  0.0000,  0.0000)
  91 Cu     9.030396    3.626322   21.648455    ( 0.0000,  0.0000,  0.0000)
  92 Cu    11.495271    3.618013   22.809081    ( 0.0000,  0.0000,  0.0000)
  93 Cu     9.611046    5.454101   23.358042    ( 0.0000,  0.0000,  0.0000)
  94 Cu     3.760548    5.467427   23.356169    ( 0.0000,  0.0000,  0.0000)
  95 Cu     5.645762    3.643208   22.812763    ( 0.0000,  0.0000,  0.0000)
  96 Cl     4.354263    3.623571   24.851649    ( 0.0000,  0.0000,  0.0000)
  97 Cl    10.248973    3.640577   24.837736    ( 0.0000,  0.0000,  0.0000)
  98 Cl    10.258424   -0.077398   24.798021    ( 0.0000,  0.0000,  0.0000)
  99 Cl     2.570967    1.821502    8.619553    ( 0.0000,  0.0000,  0.0000)
 100 Cl     2.622675    5.527405    8.629211    ( 0.0000,  0.0000,  0.0000)
 101 Cl     8.491362    5.550114    8.603584    ( 0.0000,  0.0000,  0.0000)

Unit cell:
           periodic     x           y           z      points  spacing
  1. axis:    yes   11.703590    0.000000    0.000000    70     0.1672
  2. axis:    yes    0.000000    7.402000    0.000000    42     0.1762
  3. axis:    no     0.000000    0.000000   33.459128   192     0.1743

  Lengths:  11.703590   7.402000  33.459128
  Angles:   90.000000  90.000000  90.000000

Effective grid spacing dv^(1/3) = 0.1725

     iter     time        total  log10-change:
                         energy  eigst   dens
iter:   1 23:31:21 -7492.305847  -2.35
iter:   2 23:35:15 -7492.952212  -2.77  -2.38
iter:   3 23:39:09 -7491.404234  -3.20  -2.28
iter:   4 23:43:02 -7491.237939  -3.88  -2.70
iter:   5 23:46:55 -7491.215171c -3.80  -2.92
iter:   6 23:50:48 -7491.207058c -4.56  -3.22
iter:   7 23:54:41 -7491.202692c -4.74  -3.38
iter:   8 23:58:35 -7491.202681c -5.45  -3.57
iter:   9 00:02:29 -7491.202749c -5.57  -3.65
iter:  10 00:06:22 -7491.201497c -5.72  -3.71
iter:  11 00:10:16 -7491.201289c -5.42  -3.92
iter:  12 00:14:10 -7491.201015c -6.66  -4.08c
iter:  13 00:18:03 -7491.200807c -6.09  -4.14c
iter:  14 00:21:56 -7491.200816c -6.40  -4.24c
iter:  15 00:25:49 -7491.200814c -6.90  -4.38c
iter:  16 00:29:42 -7491.200750c -7.34  -4.40c
iter:  17 00:33:37 -7491.200740c -7.69c -4.58c

Converged after 17 iterations.

Dipole moment: (17.618491, 59.614272, -0.002258) |e|*Ang

Energy contributions relative to reference atoms: (reference = -4397389.073122)

Kinetic:       +738.354279
Potential:     -812.477928
External:        +0.000000
XC:            -7415.364229
Entropy (-ST):   -0.974950
Local:           -1.225386
--------------------------
Free energy:   -7491.688215
Extrapolated:  -7491.200740

Showing only first 2 kpts
 Kpt  Band  Eigenvalues  Occupancy
  0   547      0.22103    0.94461
  0   548      0.34600    0.40829
  0   549      0.38054    0.30737
  0   550      0.41865    0.22071

  1   547     -0.05802    1.87162
  1   548      0.03596    1.70131
  1   549      0.06192    1.62920
  1   550      0.10936    1.46437


Fermi level: 0.20994

No gap

Forces in eV/Ang:
  0 Cu   -0.02471   -0.02135   -0.07263
  1 Cu    0.03625    0.01549   -0.04849
  2 Cu    0.03505   -0.01237    0.03411
  3 Cu   -0.05429   -0.09924   -0.16855
  4 Cu   -0.02388    0.00542   -0.01216
  5 Cu    0.09407    0.00204   -0.00914
  6 Cu   -0.00142    0.00430   -0.02003
  7 Cu   -0.01491    0.04234    0.00897
  8 Cu    0.03562   -0.01245    0.01913
  9 Cu    0.00207    0.00415    0.00994
 10 Cu   -0.02644    0.00789   -0.00506
 11 Cu    0.01692    0.00344   -0.02331
 12 Cu   -0.00327    0.00017    0.01511
 13 Cu    0.00304    0.00494   -0.01054
 14 Cu    0.01497   -0.00005   -0.02853
 15 Cu    0.00484    0.03812   -0.00458
 16 Cu    0.01357    0.00357   -0.01486
 17 Cu    0.01730    0.00212    0.00847
 18 Cu    0.00485    0.00361    0.00827
 19 Cu    0.02138    0.00494   -0.02351
 20 Cu   -0.00346   -0.00470   -0.00659
 21 Cu   -0.00770   -0.00013   -0.00441
 22 Cu   -0.00152   -0.00137   -0.00652
 23 Cu   -0.00625    0.00087    0.00434
 24 Cu    0.00991   -0.00108   -0.00948
 25 Cu    0.00253    0.00194   -0.00883
 26 Cu    0.00721   -0.00089   -0.01507
 27 Cu    0.00572    0.00008   -0.00719
 28 Cu   -0.00289   -0.00221   -0.05974
 29 Cu   -0.01992    0.01623   -0.00726
 30 Cu   -0.02317    0.00178    0.00859
 31 Cu    0.00385   -0.00160   -0.03487
 32 Cu   -0.00390   -0.00096    0.00553
 33 Cu    0.00161    0.00934   -0.01634
 34 Cu    0.00472   -0.02514    0.00005
 35 Cu   -0.01471    0.00236    0.03146
 36 Cu   -0.04788    0.00104    0.05962
 37 Cu   -0.04064   -0.00365   -0.01457
 38 Cu   -0.01958   -0.01968    0.04163
 39 Cu    0.00920    0.00204    0.03657
 40 Cu   -0.09617    0.00153    0.02578
 41 Cu    0.02782   -0.00571   -0.00309
 42 Cu    0.02608   -0.05874   -0.01760
 43 Cu    0.01278   -0.00034    0.01432
 44 Cu   -0.07377   -0.01765    0.14048
 45 Cu    0.03257   -0.07859    0.05072
 46 Cu    0.06242    0.03300    0.16808
 47 Cu   -0.01188    0.00919   -0.02825
 48 Cu    0.02104   -0.00608   -0.08349
 49 Cu    0.03204    0.00168   -0.03490
 50 Cu    0.02552    0.02776   -0.06079
 51 Cu   -0.06984    0.05681   -0.06772
 52 Cu   -0.04096    0.00433    0.02052
 53 Cu    0.00143    0.00895   -0.01288
 54 Cu    0.02494    0.00767   -0.03021
 55 Cu    0.01500   -0.03823   -0.00843
 56 Cu    0.02520    0.02453    0.04260
 57 Cu    0.00405    0.01455   -0.01686
 58 Cu    0.00845    0.00937    0.01505
 59 Cu    0.04017    0.00221   -0.01309
 60 Cu    0.00710    0.00099   -0.01091
 61 Cu    0.00629    0.00295   -0.00344
 62 Cu    0.01739    0.00725    0.00521
 63 Cu   -0.01009   -0.03646   -0.00722
 64 Cu    0.00859    0.00418   -0.02109
 65 Cu    0.00520   -0.00168   -0.00942
 66 Cu    0.01437   -0.00140   -0.02159
 67 Cu    0.01675    0.00256    0.00182
 68 Cu   -0.00692    0.00603    0.00757
 69 Cu   -0.00721   -0.00066   -0.01118
 70 Cu   -0.00018    0.00149    0.00006
 71 Cu    0.00090    0.00065   -0.00796
 72 Cu    0.01365    0.00114   -0.00828
 73 Cu    0.00777   -0.00330   -0.01982
 74 Cu    0.00388   -0.00027   -0.00185
 75 Cu    0.00403   -0.00104   -0.01007
 76 Cu   -0.00791    0.00138    0.00642
 77 Cu   -0.01949   -0.01572    0.00615
 78 Cu   -0.01958   -0.00318   -0.01223
 79 Cu   -0.01273    0.00069    0.00585
 80 Cu   -0.01625    0.00257   -0.01090
 81 Cu   -0.01120   -0.00960   -0.00317
 82 Cu    0.01893    0.02052   -0.00533
 83 Cu   -0.02693   -0.00421   -0.01223
 84 Cu    0.00751   -0.00225    0.00530
 85 Cu   -0.02176    0.00794   -0.01316
 86 Cu   -0.04109    0.01214    0.03614
 87 Cu   -0.00656    0.00679   -0.03148
 88 Cu    0.02117   -0.00399    0.04399
 89 Cu    0.06153   -0.00296   -0.03025
 90 Cu   -0.00831    0.06445    0.01134
 91 Cu   -0.00854    0.00274    0.10879
 92 Cu   -0.04398    0.01577    0.02133
 93 Cu    0.00911    0.06532    0.10412
 94 Cu    0.08938   -0.04058    0.10110
 95 Cu   -0.03105   -0.01614    0.04505
 96 Cl   -0.07172    0.00611    0.02466
 97 Cl    0.02109   -0.01899    0.04110
 98 Cl   -0.01388    0.02417    0.04567
 99 Cl   -0.01991   -0.02965   -0.05987
100 Cl   -0.04487   -0.03505   -0.05774
101 Cl    0.04180   -0.04909   -0.03004

System changes: positions 

Initializing position-dependent things.

Density initialized from wave functions
      .----------------------------.  
     /|                            |  
    / |                            |  
   /  |                            |  
  /   |                            |  
 *    |                            |  
 |    |                            |  
 |    |                            |  
 |    |                            |  
 |    |                            |  
 |    |                            |  
 |    |                        Cl  |  
 |    |                            |  
 |    |       Cl    Cu       Cl   Cu  
 |    |       Cu            CCu    |  
 |    | Cu             Cu          |  
 |    | Cu  Cu   Cu    Cu Cu   CCu |  
 |    |    Cu    Cu       Cu   Cu  |  
 |    Cu   Cu       Cu    Cu       |  
 |   Cu    Cu Cu    Cu   Cu  Cu    |  
 |    |  Cu   Cu    Cu Cu    Cu   Cu  
 |    | Cu    Cu       Cu    Cu    |  
 | Cu | Cu    Cu Cu    Cu   Cu     |  
 |    | Cu  Cu   Cu    Cu Cu    Cu |  
 |    |    Cu    Cu       Cu   Cu  |  
 |    Cu   Cu       Cu    Cu       |  
 |   CCu   Cu Cu    Cu   Cu  Cu    |  
 |    |  Cu   Cu    Cu Cu    Cu   Cu  
 |    | Cu    Cu       Cu    Cu    |  
 | Cu | Cu    Cu Cu   Cu    Cu     |  
 |    |     Cu   Cu       Cu    Cu |  
 |    |    Cu             Cu       |  
 |   Cu    Cl       Cu    Cl       |  
 |    |                            |  
 |    |  Cl                        |  
 |    |                            |  
 |    |                            |  
 |    |                            |  
 |    |                            |  
 |    |                            |  
 |    |                            |  
 |    .----------------------------.  
 |   /                            /   
 |  /                            /    
 | /                            /     
 |/                            /      
 *----------------------------*       

Positions:
   0 Cu     3.219348   -0.043761   10.051363    ( 0.0000,  0.0000,  0.0000)
   1 Cu     1.326621    1.777487   10.637497    ( 0.0000,  0.0000,  0.0000)
   2 Cu     7.265064    1.795375   10.666628    ( 0.0000,  0.0000,  0.0000)
   3 Cu     9.008243   -0.052091   10.078219    ( 0.0000,  0.0000,  0.0000)
   4 Cu    11.337786   -0.059848   11.244669    ( 0.0000,  0.0000,  0.0000)
   5 Cu     9.613414    1.794850   11.676283    ( 0.0000,  0.0000,  0.0000)
   6 Cu     3.769753    1.785347   11.772793    ( 0.0000,  0.0000,  0.0000)
   7 Cu     5.516640   -0.044904   11.236638    ( 0.0000,  0.0000,  0.0000)
   8 Cu     7.852061   -0.066866   12.350601    ( 0.0000,  0.0000,  0.0000)
   9 Cu     6.095278    1.784579   12.963632    ( 0.0000,  0.0000,  0.0000)
  10 Cu     0.241659    1.784764   12.935169    ( 0.0000,  0.0000,  0.0000)
  11 Cu     2.003645   -0.064716   12.352271    ( 0.0000,  0.0000,  0.0000)
  12 Cu     4.321926   -0.071042   13.527047    ( 0.0000,  0.0000,  0.0000)
  13 Cu     2.578047    1.779050   14.121700    ( 0.0000,  0.0000,  0.0000)
  14 Cu     8.439763    1.784044   14.115130    ( 0.0000,  0.0000,  0.0000)
  15 Cu    10.166902   -0.051908   13.535441    ( 0.0000,  0.0000,  0.0000)
  16 Cu     0.831751   -0.073250   14.691817    ( 0.0000,  0.0000,  0.0000)
  17 Cu    10.789337    1.777969   15.259195    ( 0.0000,  0.0000,  0.0000)
  18 Cu     4.929212    1.781108   15.260613    ( 0.0000,  0.0000,  0.0000)
  19 Cu     6.689927   -0.069876   14.687189    ( 0.0000,  0.0000,  0.0000)
  20 Cu     9.026589   -0.073703   15.860764    ( 0.0000,  0.0000,  0.0000)
  21 Cu     7.281061    1.780699   16.450562    ( 0.0000,  0.0000,  0.0000)
  22 Cu     1.428894    1.776881   16.441567    ( 0.0000,  0.0000,  0.0000)
  23 Cu     3.177976   -0.070872   15.862682    ( 0.0000,  0.0000,  0.0000)
  24 Cu     5.530362   -0.071683   17.000898    ( 0.0000,  0.0000,  0.0000)
  25 Cu     3.783876    1.781673   17.589752    ( 0.0000,  0.0000,  0.0000)
  26 Cu     9.632714    1.778017   17.589344    ( 0.0000,  0.0000,  0.0000)
  27 Cu    11.382166   -0.069202   17.011773    ( 0.0000,  0.0000,  0.0000)
  28 Cu     2.023206   -0.069428   18.189002    ( 0.0000,  0.0000,  0.0000)
  29 Cu     0.274389    1.782520   18.756027    ( 0.0000,  0.0000,  0.0000)
  30 Cu     6.120354    1.779041   18.761652    ( 0.0000,  0.0000,  0.0000)
  31 Cu     7.882210   -0.072695   18.186470    ( 0.0000,  0.0000,  0.0000)
  32 Cu    10.229954   -0.068131   19.332702    ( 0.0000,  0.0000,  0.0000)
  33 Cu     8.485542    1.777733   19.920368    ( 0.0000,  0.0000,  0.0000)
  34 Cu     2.641793    1.760643   19.911384    ( 0.0000,  0.0000,  0.0000)
  35 Cu     4.371515   -0.072356   19.335558    ( 0.0000,  0.0000,  0.0000)
  36 Cu     6.715710   -0.071707   20.482777    ( 0.0000,  0.0000,  0.0000)
  37 Cu     4.955738    1.783836   21.096624    ( 0.0000,  0.0000,  0.0000)
  38 Cu    10.801397    1.785888   21.092675    ( 0.0000,  0.0000,  0.0000)
  39 Cu     0.866902   -0.070415   20.500287    ( 0.0000,  0.0000,  0.0000)
  40 Cu     3.194892   -0.074213   21.775820    ( 0.0000,  0.0000,  0.0000)
  41 Cu     1.473284    1.775639   22.202849    ( 0.0000,  0.0000,  0.0000)
  42 Cu     7.292290    1.761681   22.215694    ( 0.0000,  0.0000,  0.0000)
  43 Cu     9.035847   -0.065399   21.691190    ( 0.0000,  0.0000,  0.0000)
  44 Cu    11.477087   -0.060981   22.786219    ( 0.0000,  0.0000,  0.0000)
  45 Cu     9.596294    1.792052   23.407029    ( 0.0000,  0.0000,  0.0000)
  46 Cu     3.803326    1.790846   23.370189    ( 0.0000,  0.0000,  0.0000)
  47 Cu     5.531934   -0.076140   22.781288    ( 0.0000,  0.0000,  0.0000)
  48 Cu     3.192726    3.641837   10.055930    ( 0.0000,  0.0000,  0.0000)
  49 Cu     1.333286    5.497256   10.633669    ( 0.0000,  0.0000,  0.0000)
  50 Cu     7.172235    5.478141   10.626787    ( 0.0000,  0.0000,  0.0000)
  51 Cu     9.014918    3.642802   10.061918    ( 0.0000,  0.0000,  0.0000)
  52 Cu    11.346952    3.631482   11.229292    ( 0.0000,  0.0000,  0.0000)
  53 Cu     9.636324    5.481301   11.809381    ( 0.0000,  0.0000,  0.0000)
  54 Cu     3.778122    5.488083   11.767459    ( 0.0000,  0.0000,  0.0000)
  55 Cu     5.501542    3.617395   11.234661    ( 0.0000,  0.0000,  0.0000)
  56 Cu     7.852642    3.637024   12.344955    ( 0.0000,  0.0000,  0.0000)
  57 Cu     6.110159    5.480623   12.933504    ( 0.0000,  0.0000,  0.0000)
  58 Cu     0.254527    5.480668   12.933273    ( 0.0000,  0.0000,  0.0000)
  59 Cu     2.000265    3.633456   12.351065    ( 0.0000,  0.0000,  0.0000)
  60 Cu     4.316187    3.634499   13.526630    ( 0.0000,  0.0000,  0.0000)
  61 Cu     2.581606    5.483787   14.118375    ( 0.0000,  0.0000,  0.0000)
  62 Cu     8.433748    5.478864   14.114215    ( 0.0000,  0.0000,  0.0000)
  63 Cu    10.173340    3.614961   13.537492    ( 0.0000,  0.0000,  0.0000)
  64 Cu     0.836037    3.632636   14.695947    ( 0.0000,  0.0000,  0.0000)
  65 Cu    10.787609    5.482614   15.260199    ( 0.0000,  0.0000,  0.0000)
  66 Cu     4.935166    5.479898   15.251898    ( 0.0000,  0.0000,  0.0000)
  67 Cu     6.687372    3.629261   14.688445    ( 0.0000,  0.0000,  0.0000)
  68 Cu     9.026622    3.632909   15.866912    ( 0.0000,  0.0000,  0.0000)
  69 Cu     7.280866    5.478862   16.443593    ( 0.0000,  0.0000,  0.0000)
  70 Cu     1.431398    5.482954   16.441601    ( 0.0000,  0.0000,  0.0000)
  71 Cu     3.176507    3.630560   15.857589    ( 0.0000,  0.0000,  0.0000)
  72 Cu     5.531432    3.630789   17.007200    ( 0.0000,  0.0000,  0.0000)
  73 Cu     3.784185    5.478719   17.587826    ( 0.0000,  0.0000,  0.0000)
  74 Cu     9.634306    5.482004   17.595614    ( 0.0000,  0.0000,  0.0000)
  75 Cu    11.381320    3.628231   17.008227    ( 0.0000,  0.0000,  0.0000)
  76 Cu     2.022636    3.629155   18.192518    ( 0.0000,  0.0000,  0.0000)
  77 Cu     0.271750    5.477961   18.751360    ( 0.0000,  0.0000,  0.0000)
  78 Cu     6.124125    5.481184   18.759655    ( 0.0000,  0.0000,  0.0000)
  79 Cu     7.875796    3.631482   18.202809    ( 0.0000,  0.0000,  0.0000)
  80 Cu    10.228611    3.628550   19.322622    ( 0.0000,  0.0000,  0.0000)
  81 Cu     8.492141    5.483140   19.922869    ( 0.0000,  0.0000,  0.0000)
  82 Cu     2.634879    5.500748   19.911895    ( 0.0000,  0.0000,  0.0000)
  83 Cu     4.374857    3.631480   19.330192    ( 0.0000,  0.0000,  0.0000)
  84 Cu     6.695628    3.631089   20.512159    ( 0.0000,  0.0000,  0.0000)
  85 Cu     4.953606    5.475694   21.096964    ( 0.0000,  0.0000,  0.0000)
  86 Cu    10.804170    5.477460   21.090818    ( 0.0000,  0.0000,  0.0000)
  87 Cu     0.847906    3.631849   20.511791    ( 0.0000,  0.0000,  0.0000)
  88 Cu     3.166899    3.633975   21.628932    ( 0.0000,  0.0000,  0.0000)
  89 Cu     1.460459    5.488433   22.212077    ( 0.0000,  0.0000,  0.0000)
  90 Cu     7.304609    5.498802   22.209349    ( 0.0000,  0.0000,  0.0000)
  91 Cu     9.029475    3.627429   21.667599    ( 0.0000,  0.0000,  0.0000)
  92 Cu    11.486725    3.622184   22.811844    ( 0.0000,  0.0000,  0.0000)
  93 Cu     9.615655    5.473243   23.390934    ( 0.0000,  0.0000,  0.0000)
  94 Cu     3.786297    5.468882   23.378622    ( 0.0000,  0.0000,  0.0000)
  95 Cu     5.641087    3.638902   22.819502    ( 0.0000,  0.0000,  0.0000)
  96 Cl     4.337678    3.624747   24.863408    ( 0.0000,  0.0000,  0.0000)
  97 Cl    10.253006    3.635327   24.847383    ( 0.0000,  0.0000,  0.0000)
  98 Cl    10.246222   -0.071526   24.824270    ( 0.0000,  0.0000,  0.0000)
  99 Cl     2.567199    1.814586    8.602026    ( 0.0000,  0.0000,  0.0000)
 100 Cl     2.613146    5.519214    8.611619    ( 0.0000,  0.0000,  0.0000)
 101 Cl     8.501018    5.539119    8.588446    ( 0.0000,  0.0000,  0.0000)

Unit cell:
           periodic     x           y           z      points  spacing
  1. axis:    yes   11.703590    0.000000    0.000000    70     0.1672
  2. axis:    yes    0.000000    7.402000    0.000000    42     0.1762
  3. axis:    no     0.000000    0.000000   33.459128   192     0.1743

  Lengths:  11.703590   7.402000  33.459128
  Angles:   90.000000  90.000000  90.000000

Effective grid spacing dv^(1/3) = 0.1725

     iter     time        total  log10-change:
                         energy  eigst   dens
iter:   1 00:39:56 -7491.882028  -2.51
iter:   2 00:43:50 -7492.561528  -2.94  -2.49
iter:   3 00:47:43 -7491.330118  -3.42  -2.34
iter:   4 00:51:39 -7491.259694  -3.91  -2.84
iter:   5 00:55:47 -7491.254612c -4.29  -3.10
iter:   6 00:59:43 -7491.248508c -4.72  -3.31
iter:   7 01:03:50 -7491.247786c -5.01  -3.52
iter:   8 01:08:03 -7491.247775c -5.65  -3.66
iter:   9 01:12:38 -7491.247704c -5.99  -3.73
iter:  10 01:16:44 -7491.246719c -5.73  -3.77
iter:  11 01:21:13 -7491.246725c -5.46  -3.98
iter:  12 01:25:41 -7491.246553c -6.94  -4.10c
iter:  13 01:30:42 -7491.246315c -6.34  -4.13c
iter:  14 01:35:15 -7491.246386c -6.03  -4.22c
iter:  15 01:39:45 -7491.246337c -6.50  -4.50c
iter:  16 01:44:17 -7491.246289c -7.49c -4.46c

Converged after 16 iterations.

Dipole moment: (18.037728, 58.939506, 0.006846) |e|*Ang

Energy contributions relative to reference atoms: (reference = -4397389.073122)

Kinetic:       +735.670648
Potential:     -810.373152
External:        +0.000000
XC:            -7414.812410
Entropy (-ST):   -0.974474
Local:           -1.244138
--------------------------
Free energy:   -7491.733526
Extrapolated:  -7491.246289

Showing only first 2 kpts
 Kpt  Band  Eigenvalues  Occupancy
  0   547      0.23132    0.91801
  0   548      0.35242    0.40353
  0   549      0.38754    0.30207
  0   550      0.42477    0.21843

  1   547     -0.05342    1.87205
  1   548      0.04416    1.69297
  1   549      0.06918    1.62216
  1   550      0.11195    1.47360


Fermi level: 0.21489

No gap

Forces in eV/Ang:
  0 Cu    0.00000   -0.01822   -0.03322
  1 Cu    0.00775    0.01051   -0.02898
  2 Cu   -0.03505   -0.01180    0.01184
  3 Cu    0.00046   -0.05368   -0.05429
  4 Cu   -0.00236   -0.02207   -0.02753
  5 Cu    0.06366   -0.01869    0.00820
  6 Cu    0.00026    0.00202   -0.01857
  7 Cu   -0.00729    0.01291   -0.01105
  8 Cu    0.03065   -0.01482   -0.00069
  9 Cu    0.00648    0.00178   -0.00920
 10 Cu    0.01680   -0.00061   -0.01727
 11 Cu    0.00311    0.00060   -0.02896
 12 Cu    0.00096    0.00402   -0.00602
 13 Cu    0.00580    0.00321   -0.02725
 14 Cu    0.00583   -0.00137   -0.01986
 15 Cu    0.01139    0.00258   -0.01628
 16 Cu    0.01287    0.00830   -0.01660
 17 Cu    0.01252    0.00664    0.00120
 18 Cu    0.01041   -0.00049   -0.01307
 19 Cu    0.00807    0.00488   -0.00652
 20 Cu    0.00949    0.00631   -0.01638
 21 Cu    0.00269    0.00172   -0.01921
 22 Cu    0.00664    0.01188   -0.00948
 23 Cu    0.00654    0.00062   -0.02023
 24 Cu   -0.00293   -0.00039    0.01180
 25 Cu   -0.00407   -0.00237    0.00260
 26 Cu   -0.00235    0.00234    0.00186
 27 Cu   -0.00808   -0.00632   -0.00270
 28 Cu   -0.01317   -0.00580   -0.00842
 29 Cu   -0.01505   -0.00427    0.01538
 30 Cu   -0.00876   -0.00622    0.00641
 31 Cu   -0.01774    0.00284    0.02033
 32 Cu   -0.00315   -0.00176    0.02666
 33 Cu   -0.00119    0.00508    0.01469
 34 Cu   -0.00856    0.00670    0.01320
 35 Cu   -0.00758    0.00074    0.02024
 36 Cu   -0.02218   -0.00044    0.03855
 37 Cu   -0.02411    0.00250    0.00559
 38 Cu    0.00884   -0.02060    0.03762
 39 Cu   -0.03604   -0.00058    0.06150
 40 Cu   -0.07148    0.00814   -0.01253
 41 Cu   -0.00624    0.01097    0.02003
 42 Cu    0.01324   -0.01913    0.00704
 43 Cu    0.00095   -0.00543   -0.01846
 44 Cu   -0.00377   -0.00622    0.06283
 45 Cu   -0.00700   -0.00565   -0.00560
 46 Cu   -0.00267    0.03525    0.05609
 47 Cu    0.06966    0.00097   -0.02867
 48 Cu    0.02688   -0.00123   -0.04150
 49 Cu    0.00525   -0.00211   -0.01397
 50 Cu   -0.02461    0.01689    0.00041
 51 Cu   -0.01515    0.05794   -0.03792
 52 Cu   -0.01676    0.02727   -0.01073
 53 Cu   -0.00685    0.00717   -0.03389
 54 Cu    0.03081    0.00552   -0.04159
 55 Cu    0.01335   -0.01399   -0.01273
 56 Cu    0.02361    0.01897    0.01686
 57 Cu   -0.00496    0.00738   -0.03748
 58 Cu    0.00140    0.00771   -0.01137
 59 Cu    0.01105    0.00295   -0.01858
 60 Cu    0.01271    0.00188   -0.01949
 61 Cu    0.01510    0.00162   -0.02044
 62 Cu    0.02660    0.00731    0.00176
 63 Cu    0.00254    0.00560   -0.01300
 64 Cu    0.00385    0.00068   -0.02106
 65 Cu    0.00520   -0.00514   -0.02760
 66 Cu    0.01553    0.00244   -0.02523
 67 Cu    0.01013    0.00440   -0.00071
 68 Cu    0.00235   -0.00319   -0.01130
 69 Cu    0.00082    0.00018   -0.01023
 70 Cu   -0.00245   -0.00990   -0.00680
 71 Cu    0.00349    0.00288   -0.00696
 72 Cu   -0.00169    0.00026   -0.00028
 73 Cu    0.00248    0.00262   -0.00088
 74 Cu   -0.00275   -0.00114   -0.00343
 75 Cu    0.00074    0.00615   -0.00786
 76 Cu   -0.00352    0.00395    0.01456
 77 Cu   -0.00878    0.00664    0.02210
 78 Cu   -0.01428    0.00519    0.00322
 79 Cu   -0.01681   -0.00329    0.00822
 80 Cu   -0.02625    0.00007    0.03915
 81 Cu   -0.01447   -0.00526    0.02141
 82 Cu    0.00522   -0.00882    0.00788
 83 Cu   -0.02518   -0.00103    0.00956
 84 Cu    0.01491    0.00030    0.04226
 85 Cu   -0.01604   -0.00084    0.00492
 86 Cu    0.00281    0.01503    0.02946
 87 Cu    0.00601   -0.00144    0.00703
 88 Cu    0.02266   -0.00316    0.05394
 89 Cu    0.01810   -0.02229    0.00701
 90 Cu   -0.00701    0.02309    0.02243
 91 Cu   -0.02757    0.00207    0.08822
 92 Cu   -0.01362    0.00988    0.00630
 93 Cu   -0.02362   -0.00261    0.02238
 94 Cu    0.02058   -0.04151    0.03461
 95 Cu    0.02272   -0.01112   -0.00682
 96 Cl   -0.05047    0.00844    0.06986
 97 Cl    0.01626   -0.00618    0.03612
 98 Cl    0.01282    0.00633    0.08165
 99 Cl   -0.01833   -0.02231   -0.04561
100 Cl   -0.04121   -0.02841   -0.04507
101 Cl    0.03077   -0.05648   -0.07267

System changes: positions 

Initializing position-dependent things.

Density initialized from wave functions
      .----------------------------.  
     /|                            |  
    / |                            |  
   /  |                            |  
  /   |                            |  
 *    |                            |  
 |    |                            |  
 |    |                            |  
 |    |                            |  
 |    |                            |  
 |    |                            |  
 |    |                        Cl  |  
 |    |                            |  
 |    |       Cl    Cu       Cl   Cu  
 |    |       Cu            CCu    |  
 |    | Cu             Cu          |  
 |    | Cu  Cu   Cu    Cu Cu   CCu |  
 |    |    Cu    Cu       Cu   Cu  |  
 |    Cu   Cu       Cu    Cu       |  
 |   Cu    Cu Cu    Cu   Cu  Cu    |  
 |    |  Cu   Cu    Cu Cu    Cu   Cu  
 |    | Cu    Cu       Cu    Cu    |  
 | Cu | Cu    Cu Cu    Cu   Cu     |  
 |    | Cu  Cu   Cu    Cu Cu    Cu |  
 |    |    Cu    Cu       Cu   Cu  |  
 |    Cu   Cu       Cu    Cu       |  
 |   CCu   Cu Cu    Cu   Cu  Cu    |  
 |    |  Cu   Cu    Cu       Cu   Cu  
 |    | Cu    Cu       Cu    Cu    |  
 | Cu | Cu    Cu Cu   Cu    Cu     |  
 |    |     Cu   Cu       Cu    Cu |  
 |    |    Cu             Cu       |  
 |   Cu    Cl       Cu    Cl       |  
 |    |                            |  
 |    |  Cl                        |  
 |    |                            |  
 |    |                            |  
 |    |                            |  
 |    |                            |  
 |    |                            |  
 |    |                            |  
 |    .----------------------------.  
 |   /                            /   
 |  /                            /    
 | /                            /     
 |/                            /      
 *----------------------------*       

Positions:
   0 Cu     3.215688   -0.047719   10.037395    ( 0.0000,  0.0000,  0.0000)
   1 Cu     1.330509    1.781081   10.630835    ( 0.0000,  0.0000,  0.0000)
   2 Cu     7.273330    1.792125   10.673865    ( 0.0000,  0.0000,  0.0000)
   3 Cu     9.000056   -0.063238   10.056205    ( 0.0000,  0.0000,  0.0000)
   4 Cu    11.335284   -0.060877   11.239822    ( 0.0000,  0.0000,  0.0000)
   5 Cu     9.624161    1.790993   11.663915    ( 0.0000,  0.0000,  0.0000)
   6 Cu     3.769062    1.785510   11.767096    ( 0.0000,  0.0000,  0.0000)
   7 Cu     5.515263   -0.037854   11.237187    ( 0.0000,  0.0000,  0.0000)
   8 Cu     7.860657   -0.068761   12.347154    ( 0.0000,  0.0000,  0.0000)
   9 Cu     6.096302    1.785425   12.965879    ( 0.0000,  0.0000,  0.0000)
  10 Cu     0.243045    1.785871   12.931916    ( 0.0000,  0.0000,  0.0000)
  11 Cu     2.006029   -0.063650   12.345737    ( 0.0000,  0.0000,  0.0000)
  12 Cu     4.321664   -0.070236   13.529099    ( 0.0000,  0.0000,  0.0000)
  13 Cu     2.578759    1.779816   14.119123    ( 0.0000,  0.0000,  0.0000)
  14 Cu     8.442010    1.784195   14.112096    ( 0.0000,  0.0000,  0.0000)
  15 Cu    10.169507   -0.047461   13.535522    ( 0.0000,  0.0000,  0.0000)
  16 Cu     0.834433   -0.072138   14.688932    ( 0.0000,  0.0000,  0.0000)
  17 Cu    10.792139    1.778705   15.260908    ( 0.0000,  0.0000,  0.0000)
  18 Cu     4.930113    1.781660   15.261319    ( 0.0000,  0.0000,  0.0000)
  19 Cu     6.693175   -0.068825   14.683862    ( 0.0000,  0.0000,  0.0000)
  20 Cu     9.027313   -0.073629   15.858916    ( 0.0000,  0.0000,  0.0000)
  21 Cu     7.280755    1.780808   16.449128    ( 0.0000,  0.0000,  0.0000)
  22 Cu     1.429186    1.778355   16.439759    ( 0.0000,  0.0000,  0.0000)
  23 Cu     3.178519   -0.070651   15.861622    ( 0.0000,  0.0000,  0.0000)
  24 Cu     5.530954   -0.071854   16.999803    ( 0.0000,  0.0000,  0.0000)
  25 Cu     3.783967    1.781831   17.588388    ( 0.0000,  0.0000,  0.0000)
  26 Cu     9.632889    1.777871   17.586484    ( 0.0000,  0.0000,  0.0000)
  27 Cu    11.382195   -0.069921   17.010321    ( 0.0000,  0.0000,  0.0000)
  28 Cu     2.020796   -0.069976   18.183505    ( 0.0000,  0.0000,  0.0000)
  29 Cu     0.271275    1.782793   18.756912    ( 0.0000,  0.0000,  0.0000)
  30 Cu     6.116833    1.778186   18.763301    ( 0.0000,  0.0000,  0.0000)
  31 Cu     7.880704   -0.072829   18.184907    ( 0.0000,  0.0000,  0.0000)
  32 Cu    10.229613   -0.068259   19.334102    ( 0.0000,  0.0000,  0.0000)
  33 Cu     8.485584    1.778858   19.918902    ( 0.0000,  0.0000,  0.0000)
  34 Cu     2.639602    1.757612   19.910121    ( 0.0000,  0.0000,  0.0000)
  35 Cu     4.368886   -0.072277   19.337967    ( 0.0000,  0.0000,  0.0000)
  36 Cu     6.710727   -0.071574   20.485430    ( 0.0000,  0.0000,  0.0000)
  37 Cu     4.946985    1.784634   21.100623    ( 0.0000,  0.0000,  0.0000)
  38 Cu    10.798986    1.783744   21.100195    ( 0.0000,  0.0000,  0.0000)
  39 Cu     0.864133   -0.070553   20.505098    ( 0.0000,  0.0000,  0.0000)
  40 Cu     3.183273   -0.072463   21.789287    ( 0.0000,  0.0000,  0.0000)
  41 Cu     1.475729    1.777842   22.205490    ( 0.0000,  0.0000,  0.0000)
  42 Cu     7.294608    1.754001   22.213822    ( 0.0000,  0.0000,  0.0000)
  43 Cu     9.037713   -0.066768   21.691875    ( 0.0000,  0.0000,  0.0000)
  44 Cu    11.474064   -0.065202   22.803517    ( 0.0000,  0.0000,  0.0000)
  45 Cu     9.601113    1.779775   23.418726    ( 0.0000,  0.0000,  0.0000)
  46 Cu     3.813025    1.791677   23.395435    ( 0.0000,  0.0000,  0.0000)
  47 Cu     5.528003   -0.073540   22.778947    ( 0.0000,  0.0000,  0.0000)
  48 Cu     3.198242    3.640444   10.040264    ( 0.0000,  0.0000,  0.0000)
  49 Cu     1.336868    5.496450   10.629755    ( 0.0000,  0.0000,  0.0000)
  50 Cu     7.170460    5.483206   10.622059    ( 0.0000,  0.0000,  0.0000)
  51 Cu     9.002554    3.650237   10.053529    ( 0.0000,  0.0000,  0.0000)
  52 Cu    11.342992    3.635153   11.230936    ( 0.0000,  0.0000,  0.0000)
  53 Cu     9.636924    5.483745   11.807277    ( 0.0000,  0.0000,  0.0000)
  54 Cu     3.783886    5.489007   11.759550    ( 0.0000,  0.0000,  0.0000)
  55 Cu     5.506492    3.612072   11.232074    ( 0.0000,  0.0000,  0.0000)
  56 Cu     7.857655    3.641333   12.347715    ( 0.0000,  0.0000,  0.0000)
  57 Cu     6.112009    5.482888   12.927443    ( 0.0000,  0.0000,  0.0000)
  58 Cu     0.256474    5.482395   12.932061    ( 0.0000,  0.0000,  0.0000)
  59 Cu     2.005977    3.634388   12.345081    ( 0.0000,  0.0000,  0.0000)
  60 Cu     4.318928    3.635021   13.524324    ( 0.0000,  0.0000,  0.0000)
  61 Cu     2.583770    5.484389   14.116838    ( 0.0000,  0.0000,  0.0000)
  62 Cu     8.438195    5.480250   14.115390    ( 0.0000,  0.0000,  0.0000)
  63 Cu    10.172810    3.611988   13.538323    ( 0.0000,  0.0000,  0.0000)
  64 Cu     0.837743    3.633276   14.692219    ( 0.0000,  0.0000,  0.0000)
  65 Cu    10.788718    5.482307   15.258135    ( 0.0000,  0.0000,  0.0000)
  66 Cu     4.937901    5.479960   15.247935    ( 0.0000,  0.0000,  0.0000)
  67 Cu     6.690271    3.629988   14.688261    ( 0.0000,  0.0000,  0.0000)
  68 Cu     9.026167    3.633167   15.867686    ( 0.0000,  0.0000,  0.0000)
  69 Cu     7.280152    5.478959   16.441755    ( 0.0000,  0.0000,  0.0000)
  70 Cu     1.430909    5.481776   16.440773    ( 0.0000,  0.0000,  0.0000)
  71 Cu     3.176870    3.630795   15.856392    ( 0.0000,  0.0000,  0.0000)
  72 Cu     5.532711    3.630910   17.005905    ( 0.0000,  0.0000,  0.0000)
  73 Cu     3.785587    5.478381   17.584206    ( 0.0000,  0.0000,  0.0000)
  74 Cu     9.634319    5.482066   17.594474    ( 0.0000,  0.0000,  0.0000)
  75 Cu    11.382089    3.628829   17.005542    ( 0.0000,  0.0000,  0.0000)
  76 Cu     2.021694    3.629419   18.192206    ( 0.0000,  0.0000,  0.0000)
  77 Cu     0.269022    5.477971   18.754014    ( 0.0000,  0.0000,  0.0000)
  78 Cu     6.120669    5.481803   18.758895    ( 0.0000,  0.0000,  0.0000)
  79 Cu     7.872943    3.631418   18.202961    ( 0.0000,  0.0000,  0.0000)
  80 Cu    10.224154    3.628519   19.325191    ( 0.0000,  0.0000,  0.0000)
  81 Cu     8.488759    5.482034   19.924144    ( 0.0000,  0.0000,  0.0000)
  82 Cu     2.636227    5.503290   19.908848    ( 0.0000,  0.0000,  0.0000)
  83 Cu     4.370421    3.631115   19.328672    ( 0.0000,  0.0000,  0.0000)
  84 Cu     6.695787    3.631009   20.517545    ( 0.0000,  0.0000,  0.0000)
  85 Cu     4.948668    5.475289   21.098369    ( 0.0000,  0.0000,  0.0000)
  86 Cu    10.798282    5.479043   21.099168    ( 0.0000,  0.0000,  0.0000)
  87 Cu     0.846290    3.632297   20.511694    ( 0.0000,  0.0000,  0.0000)
  88 Cu     3.169764    3.632142   21.636022    ( 0.0000,  0.0000,  0.0000)
  89 Cu     1.467780    5.485173   22.209401    ( 0.0000,  0.0000,  0.0000)
  90 Cu     7.302102    5.507317   22.213351    ( 0.0000,  0.0000,  0.0000)
  91 Cu     9.025355    3.628262   21.687406    ( 0.0000,  0.0000,  0.0000)
  92 Cu    11.481102    3.625640   22.813774    ( 0.0000,  0.0000,  0.0000)
  93 Cu     9.615333    5.483272   23.412078    ( 0.0000,  0.0000,  0.0000)
  94 Cu     3.802242    5.465934   23.393735    ( 0.0000,  0.0000,  0.0000)
  95 Cu     5.642527    3.635173   22.821222    ( 0.0000,  0.0000,  0.0000)
  96 Cl     4.322875    3.626459   24.879794    ( 0.0000,  0.0000,  0.0000)
  97 Cl    10.257041    3.631835   24.856597    ( 0.0000,  0.0000,  0.0000)
  98 Cl    10.241705   -0.067842   24.847873    ( 0.0000,  0.0000,  0.0000)
  99 Cl     2.562932    1.808205    8.586852    ( 0.0000,  0.0000,  0.0000)
 100 Cl     2.602961    5.511338    8.596347    ( 0.0000,  0.0000,  0.0000)
 101 Cl     8.509859    5.525996    8.569645    ( 0.0000,  0.0000,  0.0000)

Unit cell:
[...]
  12 Cu     4.329332   -0.067554   13.500202    ( 0.0000,  0.0000,  0.0000)
  13 Cu     2.589646    1.784514   14.090076    ( 0.0000,  0.0000,  0.0000)
  14 Cu     8.457207    1.783015   14.089764    ( 0.0000,  0.0000,  0.0000)
  15 Cu    10.190066   -0.045864   13.510497    ( 0.0000,  0.0000,  0.0000)
  16 Cu     0.848857   -0.067207   14.667001    ( 0.0000,  0.0000,  0.0000)
  17 Cu    10.803876    1.784572   15.244727    ( 0.0000,  0.0000,  0.0000)
  18 Cu     4.934288    1.783172   15.247953    ( 0.0000,  0.0000,  0.0000)
  19 Cu     6.700304   -0.066989   14.671902    ( 0.0000,  0.0000,  0.0000)
  20 Cu     9.035822   -0.067444   15.852588    ( 0.0000,  0.0000,  0.0000)
  21 Cu     7.281803    1.782529   16.442123    ( 0.0000,  0.0000,  0.0000)
  22 Cu     1.430522    1.782052   16.436058    ( 0.0000,  0.0000,  0.0000)
  23 Cu     3.180449   -0.068820   15.849901    ( 0.0000,  0.0000,  0.0000)
  24 Cu     5.527248   -0.069541   17.004000    ( 0.0000,  0.0000,  0.0000)
  25 Cu     3.773802    1.780819   17.594014    ( 0.0000,  0.0000,  0.0000)
  26 Cu     9.628733    1.783470   17.596619    ( 0.0000,  0.0000,  0.0000)
  27 Cu    11.378856   -0.069121   17.007692    ( 0.0000,  0.0000,  0.0000)
  28 Cu     2.005081   -0.071013   18.201726    ( 0.0000,  0.0000,  0.0000)
  29 Cu     0.258455    1.780126   18.777825    ( 0.0000,  0.0000,  0.0000)
  30 Cu     6.110129    1.780871   18.774443    ( 0.0000,  0.0000,  0.0000)
  31 Cu     7.875997   -0.069910   18.197171    ( 0.0000,  0.0000,  0.0000)
  32 Cu    10.221147   -0.071535   19.352707    ( 0.0000,  0.0000,  0.0000)
  33 Cu     8.482283    1.782375   19.946140    ( 0.0000,  0.0000,  0.0000)
  34 Cu     2.621296    1.759919   19.935820    ( 0.0000,  0.0000,  0.0000)
  35 Cu     4.354023   -0.070131   19.355431    ( 0.0000,  0.0000,  0.0000)
  36 Cu     6.705215   -0.072033   20.499077    ( 0.0000,  0.0000,  0.0000)
  37 Cu     4.940618    1.783907   21.124186    ( 0.0000,  0.0000,  0.0000)
  38 Cu    10.793024    1.778675   21.142786    ( 0.0000,  0.0000,  0.0000)
  39 Cu     0.848962   -0.072534   20.553130    ( 0.0000,  0.0000,  0.0000)
  40 Cu     3.173223   -0.070734   21.822119    ( 0.0000,  0.0000,  0.0000)
  41 Cu     1.464421    1.787371   22.249952    ( 0.0000,  0.0000,  0.0000)
  42 Cu     7.294297    1.743877   22.242068    ( 0.0000,  0.0000,  0.0000)
  43 Cu     9.039742   -0.073016   21.717671    ( 0.0000,  0.0000,  0.0000)
  44 Cu    11.487561   -0.074366   22.865567    ( 0.0000,  0.0000,  0.0000)
  45 Cu     9.593726    1.771659   23.459183    ( 0.0000,  0.0000,  0.0000)
  46 Cu     3.802832    1.808148   23.425132    ( 0.0000,  0.0000,  0.0000)
  47 Cu     5.527399   -0.068108   22.798351    ( 0.0000,  0.0000,  0.0000)
  48 Cu     3.222865    3.630458    9.991137    ( 0.0000,  0.0000,  0.0000)
  49 Cu     1.350040    5.484232   10.593770    ( 0.0000,  0.0000,  0.0000)
  50 Cu     7.156871    5.491945   10.588787    ( 0.0000,  0.0000,  0.0000)
  51 Cu     9.002158    3.667192   10.026754    ( 0.0000,  0.0000,  0.0000)
  52 Cu    11.343825    3.647123   11.197313    ( 0.0000,  0.0000,  0.0000)
  53 Cu     9.638277    5.488565   11.784172    ( 0.0000,  0.0000,  0.0000)
  54 Cu     3.807748    5.486582   11.708685    ( 0.0000,  0.0000,  0.0000)
  55 Cu     5.523086    3.603269   11.202308    ( 0.0000,  0.0000,  0.0000)
  56 Cu     7.871749    3.641808   12.323394    ( 0.0000,  0.0000,  0.0000)
  57 Cu     6.122462    5.486564   12.905391    ( 0.0000,  0.0000,  0.0000)
  58 Cu     0.268581    5.486010   12.902863    ( 0.0000,  0.0000,  0.0000)
  59 Cu     2.017472    3.637694   12.306007    ( 0.0000,  0.0000,  0.0000)
  60 Cu     4.331146    3.637911   13.496110    ( 0.0000,  0.0000,  0.0000)
  61 Cu     2.597149    5.485604   14.084090    ( 0.0000,  0.0000,  0.0000)
  62 Cu     8.451400    5.486592   14.102119    ( 0.0000,  0.0000,  0.0000)
  63 Cu    10.187445    3.616127   13.510900    ( 0.0000,  0.0000,  0.0000)
  64 Cu     0.847700    3.635168   14.671181    ( 0.0000,  0.0000,  0.0000)
  65 Cu    10.798804    5.483220   15.243475    ( 0.0000,  0.0000,  0.0000)
  66 Cu     4.943534    5.484845   15.234211    ( 0.0000,  0.0000,  0.0000)
  67 Cu     6.699589    3.634680   14.673124    ( 0.0000,  0.0000,  0.0000)
  68 Cu     9.031992    3.632358   15.854388    ( 0.0000,  0.0000,  0.0000)
  69 Cu     7.281927    5.482410   16.441677    ( 0.0000,  0.0000,  0.0000)
  70 Cu     1.431213    5.482963   16.432510    ( 0.0000,  0.0000,  0.0000)
  71 Cu     3.181714    3.634511   15.843237    ( 0.0000,  0.0000,  0.0000)
  72 Cu     5.526885    3.632563   17.004648    ( 0.0000,  0.0000,  0.0000)
  73 Cu     3.776991    5.482172   17.589839    ( 0.0000,  0.0000,  0.0000)
  74 Cu     9.628137    5.478856   17.600427    ( 0.0000,  0.0000,  0.0000)
  75 Cu    11.378083    3.631780   17.013742    ( 0.0000,  0.0000,  0.0000)
  76 Cu     2.012182    3.631495   18.200500    ( 0.0000,  0.0000,  0.0000)
  77 Cu     0.258907    5.479949   18.774764    ( 0.0000,  0.0000,  0.0000)
  78 Cu     6.110332    5.479709   18.773173    ( 0.0000,  0.0000,  0.0000)
  79 Cu     7.866338    3.630390   18.211651    ( 0.0000,  0.0000,  0.0000)
  80 Cu    10.215145    3.630215   19.362894    ( 0.0000,  0.0000,  0.0000)
  81 Cu     8.480365    5.476840   19.948904    ( 0.0000,  0.0000,  0.0000)
  82 Cu     2.623808    5.499096   19.934219    ( 0.0000,  0.0000,  0.0000)
  83 Cu     4.359156    3.629200   19.344887    ( 0.0000,  0.0000,  0.0000)
  84 Cu     6.688812    3.629887   20.543086    ( 0.0000,  0.0000,  0.0000)
  85 Cu     4.940650    5.474473   21.123989    ( 0.0000,  0.0000,  0.0000)
  86 Cu    10.794503    5.479611   21.141302    ( 0.0000,  0.0000,  0.0000)
  87 Cu     0.840870    3.630026   20.541327    ( 0.0000,  0.0000,  0.0000)
  88 Cu     3.172865    3.628218   21.663708    ( 0.0000,  0.0000,  0.0000)
  89 Cu     1.469122    5.470580   22.249460    ( 0.0000,  0.0000,  0.0000)
  90 Cu     7.290529    5.514018   22.246040    ( 0.0000,  0.0000,  0.0000)
  91 Cu     9.005524    3.630389   21.738662    ( 0.0000,  0.0000,  0.0000)
  92 Cu    11.463359    3.630898   22.848902    ( 0.0000,  0.0000,  0.0000)
  93 Cu     9.592228    5.487291   23.459085    ( 0.0000,  0.0000,  0.0000)
  94 Cu     3.809342    5.452106   23.422098    ( 0.0000,  0.0000,  0.0000)
  95 Cu     5.653468    3.625030   22.860007    ( 0.0000,  0.0000,  0.0000)
  96 Cl     4.286604    3.632164   24.929993    ( 0.0000,  0.0000,  0.0000)
  97 Cl    10.269128    3.631043   24.900421    ( 0.0000,  0.0000,  0.0000)
  98 Cl    10.255709   -0.071472   24.907059    ( 0.0000,  0.0000,  0.0000)
  99 Cl     2.544938    1.784449    8.543881    ( 0.0000,  0.0000,  0.0000)
 100 Cl     2.554420    5.481963    8.544981    ( 0.0000,  0.0000,  0.0000)
 101 Cl     8.523551    5.480191    8.516728    ( 0.0000,  0.0000,  0.0000)

Unit cell:
           periodic     x           y           z      points  spacing
  1. axis:    yes   11.703590    0.000000    0.000000    70     0.1672
  2. axis:    yes    0.000000    7.402000    0.000000    42     0.1762
  3. axis:    no     0.000000    0.000000   33.459128   192     0.1743

  Lengths:  11.703590   7.402000  33.459128
  Angles:   90.000000  90.000000  90.000000

Effective grid spacing dv^(1/3) = 0.1725

     iter     time        total  log10-change:
                         energy  eigst   dens
iter:   1 09:04:02 -7491.719295  -3.14
iter:   2 09:08:09 -7491.349694  -3.26  -2.56
iter:   3 09:12:09 -7491.320316c -4.69  -3.16
iter:   4 09:16:34 -7491.310672c -5.35  -3.30
iter:   5 09:21:14 -7491.308346c -5.17  -3.46
iter:   6 09:25:23 -7491.307834c -5.61  -3.72
iter:   7 09:29:40 -7491.307568c -6.26  -3.93
iter:   8 09:34:09 -7491.307545c -6.94  -4.08c
iter:   9 09:38:48 -7491.307592c -6.36  -4.17c
iter:  10 09:42:52 -7491.307596c -6.59  -4.32c
iter:  11 09:47:08 -7491.307609c -7.17  -4.39c
iter:  12 09:51:06 -7491.307534c -7.37  -4.40c
iter:  13 09:55:13 -7491.307511c -7.26  -4.65c
iter:  14 09:59:26 -7491.307507c -8.04c -4.98c

Converged after 14 iterations.

Dipole moment: (18.554189, 60.403560, 0.000276) |e|*Ang

Energy contributions relative to reference atoms: (reference = -4397389.073122)

Kinetic:       +720.560565
Potential:     -798.566002
External:        +0.000000
XC:            -7411.475317
Entropy (-ST):   -0.974907
Local:           -1.339299
--------------------------
Free energy:   -7491.794961
Extrapolated:  -7491.307507

Showing only first 2 kpts
 Kpt  Band  Eigenvalues  Occupancy
  0   547      0.23209    0.85036
  0   548      0.36590    0.32504
  0   549      0.37957    0.28950
  0   550      0.41908    0.20468

  1   547     -0.06735    1.87321
  1   548      0.06174    1.60499
  1   549      0.06655    1.58951
  1   550      0.09763    1.47888


Fermi level: 0.20194

No gap

Forces in eV/Ang:
  0 Cu    0.00002   -0.00369   -0.01020
  1 Cu    0.01112   -0.00556   -0.00693
  2 Cu   -0.00840    0.00156   -0.00717
  3 Cu    0.00442    0.00432   -0.00460
  4 Cu    0.00199   -0.00367    0.00745
  5 Cu    0.00511   -0.00123    0.01008
  6 Cu   -0.00028   -0.00412   -0.00144
  7 Cu    0.00270   -0.00511   -0.00554
  8 Cu    0.00487   -0.00180   -0.00461
  9 Cu    0.00139   -0.00118   -0.01062
 10 Cu    0.00198   -0.00109    0.00070
 11 Cu    0.00052    0.00070   -0.00454
 12 Cu    0.00142   -0.00131    0.00336
 13 Cu   -0.00259   -0.00408    0.00251
 14 Cu   -0.00926    0.00147    0.00020
 15 Cu   -0.00764   -0.00097   -0.00050
 16 Cu   -0.00530   -0.00216    0.00185
 17 Cu   -0.00259   -0.00276    0.00364
 18 Cu    0.00069   -0.00021   -0.00041
 19 Cu   -0.00203    0.00075    0.00069
 20 Cu   -0.00110   -0.00143   -0.00217
 21 Cu    0.00293    0.00123   -0.00055
 22 Cu    0.00120   -0.00031    0.00064
 23 Cu   -0.00102   -0.00045    0.00284
 24 Cu    0.00012   -0.00063    0.00056
 25 Cu    0.00321   -0.00003    0.00013
 26 Cu    0.00451   -0.00418   -0.00516
 27 Cu    0.00102   -0.00040    0.00394
 28 Cu    0.00788    0.00146   -0.00618
 29 Cu    0.00465    0.00176    0.00051
 30 Cu    0.00338   -0.00318    0.00166
 31 Cu   -0.00185   -0.00149    0.00456
 32 Cu    0.00226    0.00357    0.00606
 33 Cu   -0.00249   -0.00394   -0.00282
 34 Cu    0.00866   -0.00069    0.00009
 35 Cu    0.00941   -0.00115    0.00345
 36 Cu   -0.00545    0.00124    0.01381
 37 Cu   -0.00489   -0.00009    0.00636
 38 Cu    0.00148   -0.00217    0.00712
 39 Cu   -0.00397   -0.00025    0.00413
 40 Cu   -0.00898   -0.00039   -0.00615
 41 Cu   -0.00493   -0.00143   -0.00901
 42 Cu   -0.00060    0.00539    0.00640
 43 Cu   -0.00581    0.00284    0.00339
 44 Cu   -0.01079    0.00384   -0.00976
 45 Cu   -0.00168    0.01331    0.00361
 46 Cu   -0.00164   -0.00314    0.00198
 47 Cu    0.00793   -0.00311    0.00310
 48 Cu   -0.00818    0.00146   -0.01099
 49 Cu    0.00114    0.00294   -0.00526
 50 Cu    0.00951   -0.00704    0.00414
 51 Cu    0.00880   -0.00590   -0.00700
 52 Cu    0.00488   -0.00277    0.00151
 53 Cu   -0.00131   -0.00552   -0.00880
 54 Cu   -0.00485    0.00012   -0.00046
 55 Cu   -0.00250   -0.00193   -0.00640
 56 Cu    0.00383   -0.00330   -0.00388
 57 Cu   -0.00471   -0.00128   -0.00994
 58 Cu    0.00170   -0.00290   -0.00265
 59 Cu    0.00305   -0.00457   -0.00291
 60 Cu   -0.00033   -0.00159    0.00151
 61 Cu   -0.00096   -0.00024    0.00602
 62 Cu   -0.00359   -0.00323    0.00086
 63 Cu   -0.00389   -0.00211    0.00403
 64 Cu   -0.00221    0.00050   -0.00149
 65 Cu    0.00028    0.00015   -0.00624
 66 Cu    0.00165   -0.00220   -0.00201
 67 Cu   -0.00494   -0.00110   -0.00001
 68 Cu    0.00081    0.00084    0.00578
 69 Cu    0.00137   -0.00152   -0.00414
 70 Cu   -0.00115    0.00010    0.00456
 71 Cu   -0.00416   -0.00069    0.00808
 72 Cu    0.00123   -0.00003    0.00239
 73 Cu    0.00238    0.00051   -0.00107
 74 Cu    0.00585    0.00454   -0.00298
 75 Cu    0.00493    0.00029   -0.00831
 76 Cu   -0.00213   -0.00075    0.00949
 77 Cu    0.00370    0.00073    0.00009
 78 Cu    0.00639    0.00371    0.00031
 79 Cu   -0.00042    0.00183    0.00439
 80 Cu   -0.00325   -0.00147   -0.00631
 81 Cu    0.00007    0.00357    0.00250
 82 Cu    0.00458    0.00276   -0.00129
 83 Cu    0.00457    0.00241   -0.00045
 84 Cu    0.00702    0.00009    0.00714
 85 Cu   -0.00509    0.00110    0.00560
 86 Cu   -0.00021    0.00216    0.00278
 87 Cu   -0.00452    0.00118    0.00873
 88 Cu    0.00486    0.00355    0.00870
 89 Cu   -0.00946    0.00078   -0.00383
 90 Cu    0.00290   -0.00275    0.00301
 91 Cu    0.00275   -0.00357    0.00305
 92 Cu   -0.00098   -0.00349    0.01029
 93 Cu    0.00237   -0.01544   -0.00098
 94 Cu   -0.00721    0.00093    0.00286
 95 Cu   -0.00634    0.00370   -0.00885
 96 Cl   -0.00279   -0.00174    0.00188
 97 Cl   -0.00882   -0.00045    0.00870
 98 Cl    0.00221   -0.00121    0.00976
 99 Cl    0.00467    0.00059   -0.01044
100 Cl    0.00625    0.00238   -0.00360
101 Cl    0.00341    0.00639   -0.00393

Timing:                                      incl.     excl.
-------------------------------------------------------------------
Density initialized from wave functions:   184.535   184.534   0.4% |
 Symmetrize density:                         0.001     0.001   0.0% |
Forces:                                   1182.178  1182.178   2.3% ||
Hamiltonian:                               246.915     0.403   0.0% |
 Atomic:                                     6.482     0.285   0.0% |
  XC Correction:                             6.197     6.197   0.0% |
 Calculate atomic Hamiltonians:             87.248    87.248   0.2% |
 Communicate:                               14.037    14.037   0.0% |
 Initialize Hamiltonian:                     0.002     0.002   0.0% |
 Poisson:                                    0.158     0.158   0.0% |
 XC 3D grid:                               138.586    24.740   0.0% |
  VdW-DF integral:                         113.847     0.683   0.0% |
   Convolution:                              9.095     9.095   0.0% |
   FFT:                                      3.374     3.374   0.0% |
   gather:                                  41.475    41.475   0.1% |
   hmm1:                                     4.572     4.572   0.0% |
   hmm2:                                     4.453     4.453   0.0% |
   iFFT:                                     3.329     3.329   0.0% |
   potential:                               39.561     0.417   0.0% |
    collect:                                 4.882     4.882   0.0% |
    p1:                                     19.154    19.154   0.0% |
    p2:                                      6.955     6.955   0.0% |
    sum:                                     8.154     8.154   0.0% |
   splines:                                  7.304     7.304   0.0% |
LCAO initialization:                       971.414     0.654   0.0% |
 LCAO eigensolver:                          30.354     0.003   0.0% |
  Blacs Orbital Layouts:                     4.173     0.001   0.0% |
   General diagonalize:                      4.143     4.143   0.0% |
   Redistribute coefs:                       0.019     0.019   0.0% |
   Send coefs to domains:                    0.010     0.010   0.0% |
  Calculate projections:                     0.018     0.018   0.0% |
  Distribute overlap matrix:                25.495     0.002   0.0% |
   Scalapack redistribute:                   0.041     0.041   0.0% |
   blocked summation:                       25.452    25.452   0.0% |
  Potential matrix:                          0.209     0.209   0.0% |
  SparseAtomicCorrection:                    0.032     0.032   0.0% |
  Sum over cells:                            0.424     0.424   0.0% |
 LCAO to grid:                             933.721   933.721   1.8% ||
 Set positions (LCAO WFS):                   6.685     0.020   0.0% |
  Basic WFS set positions:                   0.007     0.007   0.0% |
  Basis functions set positions:             0.001     0.001   0.0% |
  P tci:                                     0.000     0.000   0.0% |
  ST tci:                                    1.167     1.167   0.0% |
  Scalapack redistribute:                    0.064     0.064   0.0% |
  blocked summation:                         5.059     5.059   0.0% |
  mktci:                                     0.368     0.368   0.0% |
PWDescriptor:                                1.034     1.034   0.0% |
Redistribute:                                0.014     0.014   0.0% |
SCF-cycle:                               48445.844  2459.769   4.8% |-|
 Davidson:                               39333.179 12859.982  25.0% |---------|
  Apply H:                                2356.945  2317.842   4.5% |-|
   HMM T:                                   39.103    39.103   0.1% |
  Subspace diag:                          5950.731     0.042   0.0% |
   calc_h_matrix:                         3635.431  1237.666   2.4% ||
    Apply H:                              2397.765  2353.912   4.6% |-|
     HMM T:                                 43.853    43.853   0.1% |
   diagonalize:                            184.320   184.320   0.4% |
   rotate_psi:                            2130.938  2130.938   4.1% |-|
  calc. matrices:                        12927.953  8522.638  16.6% |------|
   Apply H:                               4405.315  4327.312   8.4% |--|
    HMM T:                                  78.003    78.003   0.2% |
  diagonalize:                            1065.189  1065.189   2.1% ||
  rotate_psi:                             4172.377  4172.377   8.1% |--|
 Density:                                 2688.906     0.013   0.0% |
  Atomic density matrices:                   6.473     6.473   0.0% |
  Mix:                                    1390.879  1390.879   2.7% ||
  Multipole moments:                         0.412     0.412   0.0% |
  Pseudo density:                         1291.129  1291.118   2.5% ||
   Symmetrize density:                       0.012     0.012   0.0% |
 Hamiltonian:                             3649.698     4.365   0.0% |
  Atomic:                                  109.488    16.142   0.0% |
   XC Correction:                           93.346    93.346   0.2% |
  Calculate atomic Hamiltonians:          1279.005  1279.005   2.5% ||
  Communicate:                             180.099   180.099   0.4% |
  Poisson:                                   2.013     2.013   0.0% |
  XC 3D grid:                             2074.729   326.842   0.6% |
   VdW-DF integral:                       1747.887    10.386   0.0% |
    Convolution:                           139.197   139.197   0.3% |
    FFT:                                    50.441    50.441   0.1% |
    gather:                                748.546   748.546   1.5% ||
    hmm1:                                   69.801    69.801   0.1% |
    hmm2:                                   67.256    67.256   0.1% |
    iFFT:                                   51.938    51.938   0.1% |
    potential:                             610.321     6.077   0.0% |
     collect:                               76.149    76.149   0.1% |
     p1:                                   295.625   295.625   0.6% |
     p2:                                   104.553   104.553   0.2% |
     sum:                                  127.917   127.917   0.2% |
    splines:                                 0.002     0.002   0.0% |
 Orthonormalize:                           314.291     0.005   0.0% |
  calc_s_matrix:                            36.955    36.955   0.1% |
  inverse-cholesky:                          7.762     7.762   0.0% |
  projections:                             206.097   206.097   0.4% |
  rotate_psi_s:                             63.472    63.472   0.1% |
Set symmetry:                                0.002     0.002   0.0% |
Other:                                     334.684   334.684   0.7% |
-------------------------------------------------------------------
Total:                                             51366.621 100.0%

Memory usage: 2.47 GiB
Date: Fri Oct 21 10:00:59 2022
