
  ___ ___ ___ _ _ _  
 |   |   |_  | | | | 
 | | | | | . | | | | 
 |__ |  _|___|_____|  22.1.0
 |___|_|             

User:   thorkong@node029.cluster
Date:   Sun Oct  9 06:20:27 2022
Arch:   x86_64
Pid:    26586
Python: 3.10.5
gpaw:   /groups/kemi/thorkong/miniconda3/envs/gpaw22/lib/python3.10/site-packages/gpaw
_gpaw:  /groups/kemi/thorkong/miniconda3/envs/gpaw22/lib/python3.10/site-packages/
        _gpaw.cpython-310-x86_64-linux-gnu.so
ase:    /groups/kemi/thorkong/miniconda3/envs/gpaw22/lib/python3.10/site-packages/ase (version 3.22.1)
numpy:  /groups/kemi/thorkong/miniconda3/envs/gpaw22/lib/python3.10/site-packages/numpy (version 1.23.0)
scipy:  /groups/kemi/thorkong/miniconda3/envs/gpaw22/lib/python3.10/site-packages/scipy (version 1.8.1)
libxc:  5.2.3
units:  Angstrom and eV
cores: 32
OpenMP: True
OMP_NUM_THREADS: 1

Input parameters:
  basis: dzp
  kpts: [4 4 1]
  mode: {ecut: 600.0,
         name: pw}
  xc: BEEF-vdW

System changes: positions, numbers, cell, pbc, initial_charges, initial_magmoms 

Initialize ...

Cu-setup:
  name: Copper
  id: f1c4d45d90492f1bbfdcb091e8418fdf
  Z: 29.0
  valence: 11
  core: 18
  charge: 0.0
  file: /groups/kemi/thorkong/miniconda3/envs/gpaw22/share/gpaw/Cu.PBE.gz
  compensation charges: gauss, rc=0.33, lmax=2
  cutoffs: 2.06(filt), 2.43(core),
  valence states:
                energy  radius
    4s(1.00)    -4.609   1.164
    4p(0.00)    -0.698   1.164
    3d(10.00)    -5.039   1.058
    *s          22.603   1.164
    *p          26.513   1.164
    *d          22.172   1.058

  LCAO basis set for Cu:
    Name: dzp
    File: /groups/kemi/thorkong/miniconda3/envs/gpaw22/share/gpaw/Cu.dzp.basis.gz
    Number of radial functions: 5
    Number of spherical harmonics: 15
      l=0, rc=8.9688 Bohr: 4s-sz confined orbital
      l=2, rc=5.1719 Bohr: 3d-sz confined orbital
      l=0, rc=5.3281 Bohr: 4s-dz split-valence wave
      l=2, rc=3.1406 Bohr: 3d-dz split-valence wave
      l=1, rc=8.9688 Bohr: p-type Gaussian polarization

Cl-setup:
  name: Chlorine
  id: 726897f06f34e53cf8e33b5885a02604
  Z: 17.0
  valence: 7
  core: 10
  charge: 0.0
  file: /groups/kemi/thorkong/miniconda3/envs/gpaw22/share/gpaw/Cl.PBE.gz
  compensation charges: gauss, rc=0.25, lmax=2
  cutoffs: 1.40(filt), 1.49(core),
  valence states:
                energy  radius
    3s(2.00)   -20.689   0.794
    3p(5.00)    -8.594   0.794
    *s           6.523   0.794
    *p          18.617   0.794
    *d           0.000   0.794

  LCAO basis set for Cl:
    Name: dzp
    File: /groups/kemi/thorkong/miniconda3/envs/gpaw22/share/gpaw/Cl.dzp.basis.gz
    Number of radial functions: 5
    Number of spherical harmonics: 13
      l=0, rc=5.1719 Bohr: 3s-sz confined orbital
      l=1, rc=6.2656 Bohr: 3p-sz confined orbital
      l=0, rc=2.8281 Bohr: 3s-dz split-valence wave
      l=1, rc=3.5156 Bohr: 3p-dz split-valence wave
      l=2, rc=6.2656 Bohr: d-type Gaussian polarization

Reference energy: -2606927.690960

Spin-paired calculation

Convergence criteria:
 Maximum [total energy] change in last 3 cyles: 0.0005 eV / electron
 Maximum integral of absolute [dens]ity change: 0.0001 electrons / valence electron
 Maximum integral of absolute [eigenst]ate change: 4e-08 eV^2 / valence electron
 Maximum number of scf [iter]ations: 333
 (Square brackets indicate name in SCF output, whereas a 'c' in
 the SCF output indicates the quantity has converged.)

Symmetries present (total): 1

  ( 1  0  0)
  ( 0  1  0)
  ( 0  0  1)

16 k-points: 4 x 4 x 1 Monkhorst-Pack grid
8 k-points in the irreducible part of the Brillouin zone
       k-points in crystal coordinates                weights
   0:     0.12500000   -0.37500000    0.00000000          2/16
   1:     0.12500000   -0.12500000    0.00000000          2/16
   2:     0.12500000    0.12500000    0.00000000          2/16
   3:     0.12500000    0.37500000    0.00000000          2/16
   4:     0.37500000   -0.37500000    0.00000000          2/16
   5:     0.37500000   -0.12500000    0.00000000          2/16
   6:     0.37500000    0.12500000    0.00000000          2/16
   7:     0.37500000    0.37500000    0.00000000          2/16

Wave functions: Plane wave expansion
  Cutoff energy: 600.000 eV
  Number of coefficients (min, max): 63070, 63184
  Pulay-stress correction: 0.000000 eV/Ang^3 (de/decut=0.000000)
  Using FFTW library
  ScaLapack parameters: grid=2x2, blocksize=64
  Wavefunction extrapolation:
    Improved wavefunction reuse through dual PAW basis 

Occupation numbers: Fermi-Dirac: width=0.1000 eV
 

Eigensolver
   Davidson(niter=2) 

Densities:
  Coarse grid: 45*48*175 grid
  Fine grid: 90*96*350 grid
  Total Charge: 0.000000 

Density mixing:
  Method: separate
  Backend: pulay
  Linear mixing parameter: 0.05
  Mixing with 5 old densities
  Damping of long wave oscillations: 50 

Hamiltonian:
  XC and Coulomb potentials evaluated on a 90*96*350 grid
  Using the BEEF-vdW Exchange-Correlation functional
  External potential:
    NoExternalPotential
 

XC parameters: BEEF-vdW with 2 nearest neighbor stencil

Memory estimate:
  Process memory now: 253.57 MiB
  Calculator: 920.59 MiB
    Density: 47.05 MiB
      Arrays: 18.85 MiB
      Localized functions: 20.94 MiB
      Mixer: 7.25 MiB
    Hamiltonian: 12.84 MiB
      Arrays: 12.33 MiB
      XC: 0.00 MiB
      Poisson: 0.00 MiB
      vbar: 0.51 MiB
    Wavefunctions: 860.70 MiB
      Arrays psit_nG: 404.93 MiB
      Eigensolver: 436.68 MiB
      Projections: 1.85 MiB
      Projectors: 2.41 MiB
      PW-descriptor: 14.84 MiB

Total number of cores used: 32
Parallelization over k-points: 8
Domain decomposition: 1 x 1 x 4
                      2 x 2 x 8 (xc only)

Number of atoms: 68
Number of atomic orbitals: 992
Number of bands in calculation: 420
Number of valence electrons: 692
Bands to converge: occupied

... initialized

Initializing position-dependent things.

Density initialized from atomic densities
Creating initial wave functions:
  420 bands from LCAO basis set

                                       
                                       
                                       
                                       
                                       
                         Cl            
                                       
                             Cl        
             CCl                       
                    Cl                 
                          Cl           
            Cu    Cu    Cu             
          Cl    CCu   CCu   Cu         
                                       
         Cu   CCu    Cu    Cu          
            CCu   CCu   CCu            
                                       
          Cu    CCu   CCu   Cu         
         Cu   CCu   CCu    Cu          
                                       
            CCu   CCu   CCu            
          Cu    Cu    CCu   Cu         
                                       
         Cu   CCu   CCu    Cu          
             Cu    Cu    Cu            
           Cl                          
                 Cl                    
                       CCl             
        Cl                             
                                       
            Cl                         
                                       
                                       
                                       
                                       
                                       

Positions:
   0 Cu     1.915259    1.811957    9.883280    ( 0.0000,  0.0000,  0.0000)
   1 Cu     0.598896    0.516338   11.825672    ( 0.0000,  0.0000,  0.0000)
   2 Cu     3.198646    0.525081   11.811870    ( 0.0000,  0.0000,  0.0000)
   3 Cu     1.891876    1.824877   13.700260    ( 0.0000,  0.0000,  0.0000)
   4 Cu     0.583485    0.534492   15.545603    ( 0.0000,  0.0000,  0.0000)
   5 Cu     3.190275    0.530177   15.552179    ( 0.0000,  0.0000,  0.0000)
   6 Cu     1.906630    1.853415   17.407589    ( 0.0000,  0.0000,  0.0000)
   7 Cu     0.572780    0.562735   19.219187    ( 0.0000,  0.0000,  0.0000)
   8 Cu     3.170336    0.557380   19.317564    ( 0.0000,  0.0000,  0.0000)
   9 Cu     0.587303    3.108318   11.857895    ( 0.0000,  0.0000,  0.0000)
  10 Cu     0.584557    3.155974   15.546361    ( 0.0000,  0.0000,  0.0000)
  11 Cu     0.601021    3.196680   19.234516    ( 0.0000,  0.0000,  0.0000)
  12 Cu     7.158673    1.796897   10.018929    ( 0.0000,  0.0000,  0.0000)
  13 Cu     5.812261    0.525766   11.868124    ( 0.0000,  0.0000,  0.0000)
  14 Cu     7.122735    1.834596   13.707458    ( 0.0000,  0.0000,  0.0000)
  15 Cu     5.800709    0.536854   15.545657    ( 0.0000,  0.0000,  0.0000)
  16 Cu     7.137516    1.862782   17.378064    ( 0.0000,  0.0000,  0.0000)
  17 Cu     5.843053    0.580140   19.190568    ( 0.0000,  0.0000,  0.0000)
  18 Cu     4.554424    1.843671    9.973019    ( 0.0000,  0.0000,  0.0000)
  19 Cu     4.496543    4.445988    9.980142    ( 0.0000,  0.0000,  0.0000)
  20 Cu     3.184561    3.120512   11.829326    ( 0.0000,  0.0000,  0.0000)
  21 Cu     5.805278    3.131165   11.844379    ( 0.0000,  0.0000,  0.0000)
  22 Cu     4.494946    1.836031   13.696282    ( 0.0000,  0.0000,  0.0000)
  23 Cu     4.496310    4.447814   13.695899    ( 0.0000,  0.0000,  0.0000)
  24 Cu     3.194046    3.157679   15.543291    ( 0.0000,  0.0000,  0.0000)
  25 Cu     5.804893    3.154738   15.547755    ( 0.0000,  0.0000,  0.0000)
  26 Cu     4.488296    1.853366   17.400760    ( 0.0000,  0.0000,  0.0000)
  27 Cu     4.506400    4.485187   17.408475    ( 0.0000,  0.0000,  0.0000)
  28 Cu     3.193409    3.160998   19.258736    ( 0.0000,  0.0000,  0.0000)
  29 Cu     5.858085    3.169182   19.194286    ( 0.0000,  0.0000,  0.0000)
  30 Cu     1.833036    4.436102   10.042860    ( 0.0000,  0.0000,  0.0000)
  31 Cu     1.848613    7.025561   10.048771    ( 0.0000,  0.0000,  0.0000)
  32 Cu     0.553486    5.741821   11.860378    ( 0.0000,  0.0000,  0.0000)
  33 Cu     3.202059    5.752167   11.838746    ( 0.0000,  0.0000,  0.0000)
  34 Cu     1.885605    4.450651   13.690902    ( 0.0000,  0.0000,  0.0000)
  35 Cu     1.890095    7.068785   13.693595    ( 0.0000,  0.0000,  0.0000)
  36 Cu     0.567828    5.770633   15.531001    ( 0.0000,  0.0000,  0.0000)
  37 Cu     3.195845    5.769640   15.542958    ( 0.0000,  0.0000,  0.0000)
  38 Cu     1.884264    4.473289   17.393727    ( 0.0000,  0.0000,  0.0000)
  39 Cu     1.878009    7.079508   17.370554    ( 0.0000,  0.0000,  0.0000)
  40 Cu     0.532754    5.805347   19.221171    ( 0.0000,  0.0000,  0.0000)
  41 Cu     3.135648    5.760969   19.261177    ( 0.0000,  0.0000,  0.0000)
  42 Cu     7.088273    4.405744   10.005609    ( 0.0000,  0.0000,  0.0000)
  43 Cu     7.118811    7.041645   10.020291    ( 0.0000,  0.0000,  0.0000)
  44 Cu     5.783929    5.751880   11.831860    ( 0.0000,  0.0000,  0.0000)
  45 Cu     7.105858    4.448710   13.691605    ( 0.0000,  0.0000,  0.0000)
  46 Cu     7.107683    7.070722   13.693098    ( 0.0000,  0.0000,  0.0000)
  47 Cu     5.799535    5.780808   15.538646    ( 0.0000,  0.0000,  0.0000)
  48 Cu     7.104102    4.496441   17.380297    ( 0.0000,  0.0000,  0.0000)
  49 Cu     7.092544    7.089289   17.414640    ( 0.0000,  0.0000,  0.0000)
  50 Cu     5.775387    5.792866   19.353930    ( 0.0000,  0.0000,  0.0000)
  51 Cu     4.520335    7.049803    9.924058    ( 0.0000,  0.0000,  0.0000)
  52 Cu     4.501041    7.075368   13.686949    ( 0.0000,  0.0000,  0.0000)
  53 Cu     4.492979    7.081517   17.427115    ( 0.0000,  0.0000,  0.0000)
  54 Cl     4.642738    3.731524   21.628230    ( 0.0000,  0.0000,  0.0000)
  55 Cl     3.050880    3.855057    7.612030    ( 0.0000,  0.0000,  0.0000)
  56 Cl     1.402586   -0.830588   21.651828    ( 0.0000,  0.0000,  0.0000)
  57 Cl     6.282328    8.416397    7.584298    ( 0.0000,  0.0000,  0.0000)
  58 Cl     1.366226    4.692131   21.695506    ( 0.0000,  0.0000,  0.0000)
  59 Cl     6.329001    2.889285    7.542960    ( 0.0000,  0.0000,  0.0000)
  60 Cl     0.313029   -0.043217    7.643657    ( 0.0000,  0.0000,  0.0000)
  61 Cl     7.382773    7.619836   21.587063    ( 0.0000,  0.0000,  0.0000)
  62 Cl     7.391664    1.938616   21.607044    ( 0.0000,  0.0000,  0.0000)
  63 Cl     0.300132    5.649574    7.635008    ( 0.0000,  0.0000,  0.0000)
  64 Cl     5.111949    5.785205    6.019792    ( 0.0000,  0.0000,  0.0000)
  65 Cl     2.593609    1.779521   23.217673    ( 0.0000,  0.0000,  0.0000)
  66 Cl     6.270660    5.550491   23.691726    ( 0.0000,  0.0000,  0.0000)
  67 Cl     1.409433    2.050343    5.551330    ( 0.0000,  0.0000,  0.0000)

Unit cell:
           periodic     x           y           z      points  spacing
  1. axis:    yes    7.851007    0.000000    0.000000    45     0.1655
  2. axis:    yes    2.617002    7.851007    0.000000    48     0.1636
  3. axis:    yes    0.000000    0.000000   30.683867   175     0.1753

  Lengths:   7.851007   8.275688  30.683867
  Angles:   90.000000  90.000000  71.565053

Effective grid spacing dv^(1/3) = 0.1710

     iter     time        total  log10-change:
                         energy  eigst   dens
iter:   1 06:27:01 -5284.979354
iter:   2 06:28:09 -4887.436682  +1.35  -0.63
iter:   3 06:29:09 -4722.528326  +0.84  -0.76
iter:   4 06:30:09 -4612.062735  -0.35  -1.09
iter:   5 06:31:11 -4606.611547  -1.24  -1.36
iter:   6 06:32:06 -4590.264269  -1.97  -1.25
iter:   7 06:33:06 -4589.671333  -2.73  -1.47
iter:   8 06:34:06 -4588.348585  -3.01  -1.47
iter:   9 06:35:06 -4588.893458  -2.07  -1.51
iter:  10 06:36:03 -4591.466013  -2.55  -1.56
iter:  11 06:37:32 -4587.251490  -3.56  -1.47
iter:  12 06:38:45 -4587.603195  -2.82  -1.65
iter:  13 06:39:47 -4589.375514  -3.69  -1.66
iter:  14 06:40:50 -4586.893595  -2.91  -1.59
iter:  15 06:42:17 -4585.763874  -3.43  -1.67
iter:  16 06:43:39 -4585.404620  -3.17  -1.81
iter:  17 06:44:42 -4585.625927  -3.95  -1.89
iter:  18 06:45:41 -4585.342592c -2.87  -1.88
iter:  19 06:46:36 -4585.272202  -3.79  -2.10
iter:  20 06:47:32 -4585.287869c -3.76  -2.17
iter:  21 06:48:28 -4585.341094c -4.24  -2.23
iter:  22 06:49:24 -4585.335338c -4.15  -2.20
iter:  23 06:50:19 -4585.180632c -4.39  -2.21
iter:  24 06:51:15 -4585.177694c -4.17  -2.41
iter:  25 06:52:12 -4585.158708c -5.07  -2.43
iter:  26 06:53:09 -4585.163294c -3.79  -2.52
iter:  27 06:54:07 -4585.146534c -4.90  -2.65
iter:  28 06:55:09 -4585.156304c -5.02  -2.73
iter:  29 06:56:10 -4585.147935c -5.03  -2.91
iter:  30 06:57:14 -4585.151957c -5.37  -3.01
iter:  31 06:58:18 -4585.147600c -4.81  -3.03
iter:  32 06:59:31 -4585.146936c -5.76  -3.07
iter:  33 07:00:35 -4585.142971c -5.89  -3.40
iter:  34 07:01:37 -4585.144800c -6.15  -3.53
iter:  35 07:02:40 -4585.142804c -5.81  -3.52
iter:  36 07:03:59 -4585.141872c -6.31  -3.66
iter:  37 07:05:00 -4585.141974c -6.67  -3.74
iter:  38 07:06:12 -4585.141267c -6.50  -3.80
iter:  39 07:07:19 -4585.141470c -6.56  -3.73
iter:  40 07:08:32 -4585.142846c -6.80  -3.93
iter:  41 07:09:39 -4585.141795c -7.24  -3.92
iter:  42 07:10:42 -4585.142315c -7.27  -4.05c
iter:  43 07:11:38 -4585.141984c -7.10  -4.01c
iter:  44 07:12:34 -4585.141928c -6.87  -4.25c
iter:  45 07:13:36 -4585.141863c -7.24  -4.05c
iter:  46 07:14:42 -4585.141916c -7.90c -4.24c

Converged after 46 iterations.

Dipole moment: (-13.742371, -12.981928, -0.000022) |e|*Ang

Energy contributions relative to reference atoms: (reference = -2606927.690960)

Kinetic:       +428.592192
Potential:     -473.236759
External:        +0.000000
XC:            -4538.874746
Entropy (-ST):   -1.727441
Local:           -0.758882
--------------------------
Free energy:   -4586.005636
Extrapolated:  -4585.141916

Showing only first 2 kpts
 Kpt  Band  Eigenvalues  Occupancy
  0   344     -1.24724    1.56335
  0   345     -1.23839    1.53242
  0   346     -1.21822    1.45633
  0   347     -1.19295    1.35077

  1   344     -1.22843    1.49580
  1   345     -1.17957    1.29078
  1   346     -1.16259    1.21126
  1   347     -1.11387    0.97092


Fermi level: -1.11969

No gap

Forces in eV/Ang:
  0 Cu    0.11189    0.03067   -0.38455
  1 Cu    0.00410    0.02999   -0.10563
  2 Cu   -0.01931   -0.00513   -0.09456
  3 Cu    0.00590    0.00928    0.04170
  4 Cu   -0.00539    0.00319   -0.00771
  5 Cu    0.00518    0.01038   -0.03306
  6 Cu   -0.00673   -0.01922    0.15443
  7 Cu    0.01880   -0.03735    0.97005
  8 Cu    0.26412   -0.16336    0.56592
  9 Cu   -0.01330    0.00720   -0.16668
 10 Cu   -0.01053    0.00342   -0.06141
 11 Cu   -0.07095   -0.05184    0.93742
 12 Cu   -0.10566    0.12840   -0.95027
 13 Cu    0.01034   -0.02107   -0.16340
 14 Cu   -0.00549   -0.01128    0.02474
 15 Cu    0.00483   -0.01168   -0.03474
 16 Cu   -0.02345   -0.00334    0.09537
 17 Cu   -0.25839   -0.18666    1.00778
 18 Cu   -0.08786   -0.22190   -0.85824
 19 Cu   -0.28009   -0.11249   -0.67805
 20 Cu    0.02987   -0.00978   -0.12270
 21 Cu   -0.01442    0.01283   -0.11371
 22 Cu    0.00958    0.01063    0.01864
 23 Cu   -0.00059    0.00967    0.01480
 24 Cu    0.00111   -0.01007   -0.01536
 25 Cu    0.00487    0.00662   -0.01067
 26 Cu    0.02093    0.00048    0.10736
 27 Cu   -0.03031    0.00931    0.12313
 28 Cu    0.28077    0.10708    0.68520
 29 Cu   -0.25055    0.10033    1.01681
 30 Cu    0.24091   -0.09994   -1.01534
 31 Cu    0.26165    0.17905   -1.00638
 32 Cu    0.02352    0.00479   -0.09569
 33 Cu   -0.02105   -0.00155   -0.10838
 34 Cu   -0.00389   -0.00694    0.00966
 35 Cu   -0.00554    0.01073    0.03288
 36 Cu    0.00585    0.01116   -0.02571
 37 Cu   -0.00953   -0.01078   -0.02208
 38 Cu    0.01501   -0.01197    0.11358
 39 Cu   -0.01039    0.01929    0.16128
 40 Cu    0.09670   -0.11571    0.94803
 41 Cu    0.09694    0.22932    0.86570
 42 Cu    0.08144    0.06122   -0.93910
 43 Cu   -0.02611    0.03793   -0.97226
 44 Cu    0.00778    0.01770   -0.15516
 45 Cu    0.01066   -0.00218    0.06161
 46 Cu    0.00508   -0.00272    0.00615
 47 Cu   -0.00694   -0.00949   -0.04177
 48 Cu    0.01171   -0.00672    0.16810
 49 Cu   -0.00429   -0.03077    0.10286
 50 Cu   -0.10900   -0.02284    0.38954
 51 Cu   -0.26175    0.15876   -0.58352
 52 Cu   -0.00527   -0.01081    0.03142
 53 Cu    0.01907    0.00370    0.09277
 54 Cl    0.03216   -0.12114   -1.55631
 55 Cl   -0.03065    0.12170    1.55957
 56 Cl   -0.11562    0.03588   -1.60069
 57 Cl    0.12086   -0.03811    1.60571
 58 Cl   -0.12673    0.09971   -1.62364
 59 Cl    0.12776   -0.10717    1.62394
 60 Cl    0.01512   -0.05131    1.68667
 61 Cl   -0.02094    0.05350   -1.69922
 62 Cl    0.16920   -0.04224   -1.54812
 63 Cl   -0.17240    0.03793    1.55246
 64 Cl    0.00856    0.02569    0.10216
 65 Cl   -0.00624   -0.02740   -0.10045
 66 Cl    0.01494    0.02120   -0.07696
 67 Cl   -0.01701   -0.02248    0.07865

System changes: positions 

Initializing position-dependent things.

Density initialized from wave functions
                                       
                                       
                                       
                                       
                                       
                         Cl            
                                       
                             Cl        
              Cl                       
             Cl     Cl                 
                        CuCl           
            Cu    Cu                   
          Cl    CCu   CCu   Cu         
                                       
         Cu   CCu    Cu    Cu          
            CCu   CCu   CCu            
                                       
          Cu    CCu   CCu   Cu         
         Cu   CCu   CCu    Cu          
                                       
            CCu   CCu   CCu            
          Cu    Cu    CCu   Cu         
                                       
         Cu   CCu   CCu    Cu          
                   Cu    Cu            
           ClCu                        
                 Cl     Cl             
                       Cl              
        Cl                             
                                       
            Cl                         
                                       
                                       
                                       
                                       
                                       

Positions:
   0 Cu     1.926448    1.815024    9.844825    ( 0.0000,  0.0000,  0.0000)
   1 Cu     0.599306    0.519337   11.815109    ( 0.0000,  0.0000,  0.0000)
   2 Cu     3.196715    0.524568   11.802414    ( 0.0000,  0.0000,  0.0000)
   3 Cu     1.892466    1.825805   13.704430    ( 0.0000,  0.0000,  0.0000)
   4 Cu     0.582946    0.534811   15.544832    ( 0.0000,  0.0000,  0.0000)
   5 Cu     3.190793    0.531215   15.548873    ( 0.0000,  0.0000,  0.0000)
   6 Cu     1.905957    1.851493   17.423032    ( 0.0000,  0.0000,  0.0000)
   7 Cu     0.574660    0.559000   19.316192    ( 0.0000,  0.0000,  0.0000)
   8 Cu     3.196748    0.541044   19.374156    ( 0.0000,  0.0000,  0.0000)
   9 Cu     0.585973    3.109038   11.841227    ( 0.0000,  0.0000,  0.0000)
  10 Cu     0.583504    3.156316   15.540220    ( 0.0000,  0.0000,  0.0000)
  11 Cu     0.593926    3.191496   19.328258    ( 0.0000,  0.0000,  0.0000)
  12 Cu     7.148107    1.809737    9.923902    ( 0.0000,  0.0000,  0.0000)
  13 Cu     5.813295    0.523659   11.851784    ( 0.0000,  0.0000,  0.0000)
  14 Cu     7.122186    1.833468   13.709932    ( 0.0000,  0.0000,  0.0000)
  15 Cu     5.801192    0.535686   15.542183    ( 0.0000,  0.0000,  0.0000)
  16 Cu     7.135171    1.862448   17.387601    ( 0.0000,  0.0000,  0.0000)
  17 Cu     5.817214    0.561474   19.291346    ( 0.0000,  0.0000,  0.0000)
  18 Cu     4.545638    1.821481    9.887195    ( 0.0000,  0.0000,  0.0000)
  19 Cu     4.468534    4.434739    9.912337    ( 0.0000,  0.0000,  0.0000)
  20 Cu     3.187548    3.119534   11.817056    ( 0.0000,  0.0000,  0.0000)
  21 Cu     5.803836    3.132448   11.833008    ( 0.0000,  0.0000,  0.0000)
  22 Cu     4.495904    1.837094   13.698146    ( 0.0000,  0.0000,  0.0000)
  23 Cu     4.496251    4.448781   13.697379    ( 0.0000,  0.0000,  0.0000)
  24 Cu     3.194157    3.156672   15.541755    ( 0.0000,  0.0000,  0.0000)
  25 Cu     5.805380    3.155400   15.546688    ( 0.0000,  0.0000,  0.0000)
  26 Cu     4.490389    1.853414   17.411496    ( 0.0000,  0.0000,  0.0000)
  27 Cu     4.503369    4.486118   17.420788    ( 0.0000,  0.0000,  0.0000)
  28 Cu     3.221486    3.171706   19.327256    ( 0.0000,  0.0000,  0.0000)
  29 Cu     5.833030    3.179215   19.295967    ( 0.0000,  0.0000,  0.0000)
  30 Cu     1.857127    4.426108    9.941326    ( 0.0000,  0.0000,  0.0000)
  31 Cu     1.874778    7.043466    9.948133    ( 0.0000,  0.0000,  0.0000)
  32 Cu     0.555838    5.742300   11.850809    ( 0.0000,  0.0000,  0.0000)
  33 Cu     3.199954    5.752012   11.827908    ( 0.0000,  0.0000,  0.0000)
  34 Cu     1.885216    4.449957   13.691868    ( 0.0000,  0.0000,  0.0000)
  35 Cu     1.889541    7.069858   13.696883    ( 0.0000,  0.0000,  0.0000)
  36 Cu     0.568413    5.771749   15.528430    ( 0.0000,  0.0000,  0.0000)
  37 Cu     3.194892    5.768562   15.540750    ( 0.0000,  0.0000,  0.0000)
  38 Cu     1.885765    4.472092   17.405085    ( 0.0000,  0.0000,  0.0000)
  39 Cu     1.876970    7.081437   17.386682    ( 0.0000,  0.0000,  0.0000)
  40 Cu     0.542424    5.793776   19.315974    ( 0.0000,  0.0000,  0.0000)
  41 Cu     3.145342    5.783901   19.347747    ( 0.0000,  0.0000,  0.0000)
  42 Cu     7.096417    4.411866    9.911699    ( 0.0000,  0.0000,  0.0000)
  43 Cu     7.116200    7.045438    9.923065    ( 0.0000,  0.0000,  0.0000)
  44 Cu     5.784707    5.753650   11.816344    ( 0.0000,  0.0000,  0.0000)
  45 Cu     7.106924    4.448492   13.697766    ( 0.0000,  0.0000,  0.0000)
  46 Cu     7.108191    7.070450   13.693713    ( 0.0000,  0.0000,  0.0000)
  47 Cu     5.798841    5.779859   15.534469    ( 0.0000,  0.0000,  0.0000)
  48 Cu     7.105273    4.495769   17.397107    ( 0.0000,  0.0000,  0.0000)
  49 Cu     7.092115    7.086212   17.424926    ( 0.0000,  0.0000,  0.0000)
  50 Cu     5.764487    5.790582   19.392884    ( 0.0000,  0.0000,  0.0000)
  51 Cu     4.494160    7.065679    9.865706    ( 0.0000,  0.0000,  0.0000)
  52 Cu     4.500514    7.074287   13.690091    ( 0.0000,  0.0000,  0.0000)
  53 Cu     4.494886    7.081887   17.436392    ( 0.0000,  0.0000,  0.0000)
  54 Cl     4.645954    3.719410   21.472599    ( 0.0000,  0.0000,  0.0000)
  55 Cl     3.047815    3.867227    7.767987    ( 0.0000,  0.0000,  0.0000)
  56 Cl     1.391024   -0.827000   21.491759    ( 0.0000,  0.0000,  0.0000)
  57 Cl     6.294414    8.412586    7.744869    ( 0.0000,  0.0000,  0.0000)
  58 Cl     1.353553    4.702102   21.533142    ( 0.0000,  0.0000,  0.0000)
  59 Cl     6.341777    2.878568    7.705354    ( 0.0000,  0.0000,  0.0000)
  60 Cl     0.314541   -0.048348    7.812324    ( 0.0000,  0.0000,  0.0000)
  61 Cl     7.380679    7.625186   21.417141    ( 0.0000,  0.0000,  0.0000)
  62 Cl     7.408584    1.934392   21.452232    ( 0.0000,  0.0000,  0.0000)
  63 Cl     0.282892    5.653367    7.790254    ( 0.0000,  0.0000,  0.0000)
  64 Cl     5.112805    5.787774    6.030008    ( 0.0000,  0.0000,  0.0000)
  65 Cl     2.592985    1.776781   23.207628    ( 0.0000,  0.0000,  0.0000)
  66 Cl     6.272154    5.552611   23.684030    ( 0.0000,  0.0000,  0.0000)
  67 Cl     1.407732    2.048095    5.559195    ( 0.0000,  0.0000,  0.0000)

Unit cell:
           periodic     x           y           z      points  spacing
  1. axis:    yes    7.851007    0.000000    0.000000    45     0.1655
  2. axis:    yes    2.617002    7.851007    0.000000    48     0.1636
  3. axis:    yes    0.000000    0.000000   30.683867   175     0.1753

  Lengths:   7.851007   8.275688  30.683867
  Angles:   90.000000  90.000000  71.565053

Effective grid spacing dv^(1/3) = 0.1710

     iter     time        total  log10-change:
                         energy  eigst   dens
iter:   1 07:16:36 -4735.206510  -0.65
iter:   2 07:17:42 -4730.058803  +0.20  -0.93
iter:   3 07:19:04 -4616.519906  -0.45  -1.15
iter:   4 07:20:04 -4607.332590  -2.03  -1.55
iter:   5 07:21:02 -4607.657601  -1.94  -1.69
iter:   6 07:22:02 -4600.375768  -2.07  -1.66
iter:   7 07:23:07 -4636.110510  -1.36  -1.73
iter:   8 07:24:09 -4591.944146  -1.95  -1.24
iter:   9 07:25:25 -4591.031859  -3.41  -1.95
iter:  10 07:26:25 -4593.906049  -2.81  -2.05
iter:  11 07:27:25 -4593.826294  -3.40  -1.64
iter:  12 07:28:42 -4592.600749  -4.33  -1.68
iter:  13 07:29:40 -4597.200112  -3.56  -1.76
iter:  14 07:30:39 -4592.141675  -3.51  -1.56
iter:  15 07:31:38 -4599.277120  -2.73  -1.81
iter:  16 07:32:45 -4589.927002  -2.69  -1.59
iter:  17 07:33:52 -4590.213093  -3.33  -2.23
iter:  18 07:34:51 -4589.825343  -4.46  -2.07
iter:  19 07:35:51 -4589.487757  -4.52  -2.15
iter:  20 07:36:56 -4589.481179c -3.97  -2.37
iter:  21 07:38:06 -4589.400946c -5.19  -2.25
iter:  22 07:39:21 -4589.423520c -4.74  -2.43
iter:  23 07:40:36 -4589.447929c -4.61  -2.52
iter:  24 07:41:48 -4589.449486c -4.75  -2.37
iter:  25 07:43:05 -4589.381290c -4.60  -2.39
iter:  26 07:44:41 -4589.353826c -4.21  -2.53
iter:  27 07:46:02 -4589.345635c -5.69  -2.71
iter:  28 07:47:05 -4589.344453c -4.35  -2.78
iter:  29 07:48:20 -4589.327040c -5.38  -3.03
iter:  30 07:49:31 -4589.342984c -5.54  -3.03
iter:  31 07:50:31 -4589.332609c -6.24  -3.11
iter:  32 07:51:27 -4589.339826c -5.21  -3.11
iter:  33 07:52:22 -4589.337486c -5.88  -3.32
iter:  34 07:53:19 -4589.340270c -5.77  -3.37
iter:  35 07:54:18 -4589.336727c -6.04  -3.46
iter:  36 07:55:23 -4589.336062c -6.12  -3.35
iter:  37 07:56:45 -4589.335218c -6.36  -3.60
iter:  38 07:58:11 -4589.336723c -7.22  -3.57
iter:  39 07:59:11 -4589.335274c -7.21  -3.85
iter:  40 08:00:18 -4589.335309c -6.90  -3.95
iter:  41 08:01:22 -4589.336238c -7.03  -4.04c
iter:  42 08:02:21 -4589.334864c -7.67c -4.00c

Converged after 42 iterations.

Dipole moment: (-12.893966, -12.801866, 0.000356) |e|*Ang

Energy contributions relative to reference atoms: (reference = -2606927.690960)

Kinetic:       +426.411389
Potential:     -472.250530
External:        +0.000000
XC:            -4541.861732
Entropy (-ST):   -1.552952
Local:           -0.857515
--------------------------
Free energy:   -4590.111340
Extrapolated:  -4589.334864

Showing only first 2 kpts
 Kpt  Band  Eigenvalues  Occupancy
  0   344     -1.26776    1.61404
  0   345     -1.25151    1.56088
  0   346     -1.24990    1.55535
  0   347     -1.22707    1.47144

  1   344     -1.26413    1.60262
  1   345     -1.21297    1.41483
  1   346     -1.19300    1.32888
  1   347     -1.15146    1.13308


Fermi level: -1.12468

No gap

Forces in eV/Ang:
  0 Cu    0.08032    0.03899   -0.33064
  1 Cu   -0.07516    0.05744   -0.19495
  2 Cu    0.04002   -0.04749   -0.18251
  3 Cu   -0.00043    0.00413   -0.03778
  4 Cu   -0.00598    0.00148    0.04832
  5 Cu    0.00908   -0.00230    0.03260
  6 Cu   -0.01146   -0.00715    0.30675
  7 Cu    0.03075    0.01908    0.85136
  8 Cu    0.13086   -0.09815    0.47322
  9 Cu   -0.01431    0.04704   -0.27653
 10 Cu   -0.00318    0.00259    0.03388
 11 Cu   -0.02973   -0.05134    0.82446
 12 Cu   -0.06152    0.14154   -0.80484
 13 Cu    0.02311   -0.02767   -0.28155
 14 Cu   -0.00462   -0.00051   -0.04640
 15 Cu    0.00040   -0.00624    0.03863
 16 Cu   -0.06103   -0.01075    0.34764
 17 Cu   -0.09015   -0.08450    0.74410
 18 Cu   -0.04814   -0.17764   -0.76108
 19 Cu   -0.14340   -0.08749   -0.57308
 20 Cu    0.01401    0.00520   -0.18080
 21 Cu    0.00066    0.01374   -0.28883
 22 Cu    0.01105    0.00925   -0.04901
 23 Cu    0.00533    0.00160   -0.04449
 24 Cu   -0.00491   -0.00189    0.04474
 25 Cu    0.00389    0.00030    0.04722
 26 Cu    0.05526   -0.00143    0.21927
 27 Cu   -0.01571   -0.00490    0.18496
 28 Cu    0.14289    0.08305    0.57723
 29 Cu   -0.09345    0.04009    0.81134
 30 Cu    0.08880   -0.04107   -0.81173
 31 Cu    0.09516    0.08457   -0.74931
 32 Cu    0.06049    0.01324   -0.34512
 33 Cu   -0.05387    0.00148   -0.21786
 34 Cu   -0.00336   -0.00081   -0.04772
 35 Cu   -0.00067    0.00606   -0.04006
 36 Cu    0.00451    0.00016    0.04613
 37 Cu   -0.01117   -0.00946    0.04747
 38 Cu    0.00245   -0.01092    0.29266
 39 Cu   -0.02129    0.02584    0.28100
 40 Cu    0.05831   -0.13583    0.80257
 41 Cu    0.05223    0.17982    0.76248
 42 Cu    0.03456    0.05842   -0.82375
 43 Cu   -0.03522   -0.01544   -0.85388
 44 Cu    0.01096    0.00696   -0.30584
 45 Cu    0.00344   -0.00165   -0.03328
 46 Cu    0.00554   -0.00134   -0.04891
 47 Cu    0.00002   -0.00465    0.03794
 48 Cu    0.01235   -0.04757    0.28026
 49 Cu    0.07438   -0.05730    0.19151
 50 Cu   -0.07888   -0.03453    0.33548
 51 Cu   -0.13154    0.09747   -0.48782
 52 Cu   -0.00923    0.00203   -0.03366
 53 Cu   -0.04170    0.04575    0.18177
 54 Cl   -0.02227   -0.15444   -1.68896
 55 Cl    0.02232    0.15470    1.69195
 56 Cl   -0.04439    0.00092   -1.80626
 57 Cl    0.05135   -0.00231    1.81088
 58 Cl   -0.13971    0.15085   -1.80661
 59 Cl    0.14070   -0.15480    1.80595
 60 Cl    0.10443   -0.06930    1.74010
 61 Cl   -0.10747    0.06868   -1.74167
 62 Cl    0.19083   -0.05983   -1.76524
 63 Cl   -0.19617    0.04889    1.76612
 64 Cl   -0.00364    0.00660    0.00972
 65 Cl    0.00419   -0.00566   -0.00664
 66 Cl    0.00740   -0.00981   -0.00626
 67 Cl   -0.00852    0.01035    0.00824

System changes: positions 

Initializing position-dependent things.

Density initialized from wave functions
                                       
                                       
                                       
                                       
                                       
                         Cl            
                                       
                             Cl        
              Cl                       
             Cl     Cl                 
            Cu    Cu    Cu             
                          Cl           
          Cl    CCu   CCu   Cu         
                                       
         Cu   CCu    Cu    Cu          
            CCu   CCu   CCu            
                                       
          Cu    CCu   CCu   Cu         
         Cu   CCu   CCu    Cu          
                                       
            CCu   CCu   CCu            
          Cu    CCu   CCu   Cu         
                                       
         Cu   CCu   CCu    Cu          
           Cl                          
             Cu    Cu    Cu            
                 Cl     Cl             
                       Cl              
        Cl                             
                                       
            Cl                         
                                       
                                       
                                       
                                       
                                       

Positions:
   0 Cu     1.939610    1.818633    9.799590    ( 0.0000,  0.0000,  0.0000)
   1 Cu     0.599788    0.522864   11.802684    ( 0.0000,  0.0000,  0.0000)
   2 Cu     3.194444    0.523964   11.791290    ( 0.0000,  0.0000,  0.0000)
   3 Cu     1.893159    1.826896   13.709335    ( 0.0000,  0.0000,  0.0000)
   4 Cu     0.582312    0.535187   15.543926    ( 0.0000,  0.0000,  0.0000)
   5 Cu     3.191401    0.532435   15.544984    ( 0.0000,  0.0000,  0.0000)
   6 Cu     1.905165    1.849233   17.441198    ( 0.0000,  0.0000,  0.0000)
   7 Cu     0.576871    0.554607   19.430302    ( 0.0000,  0.0000,  0.0000)
   8 Cu     3.227817    0.521828   19.440728    ( 0.0000,  0.0000,  0.0000)
   9 Cu     0.584408    3.109884   11.821620    ( 0.0000,  0.0000,  0.0000)
  10 Cu     0.582265    3.156717   15.532997    ( 0.0000,  0.0000,  0.0000)
  11 Cu     0.585580    3.185397   19.438530    ( 0.0000,  0.0000,  0.0000)
  12 Cu     7.135678    1.824842    9.812119    ( 0.0000,  0.0000,  0.0000)
  13 Cu     5.814511    0.521181   11.832562    ( 0.0000,  0.0000,  0.0000)
  14 Cu     7.121540    1.832141   13.712842    ( 0.0000,  0.0000,  0.0000)
  15 Cu     5.801761    0.534313   15.538096    ( 0.0000,  0.0000,  0.0000)
  16 Cu     7.132412    1.862056   17.398819    ( 0.0000,  0.0000,  0.0000)
  17 Cu     5.786818    0.539517   19.409895    ( 0.0000,  0.0000,  0.0000)
  18 Cu     4.535302    1.795378    9.786236    ( 0.0000,  0.0000,  0.0000)
  19 Cu     4.435586    4.421506    9.832575    ( 0.0000,  0.0000,  0.0000)
  20 Cu     3.191061    3.118383   11.802622    ( 0.0000,  0.0000,  0.0000)
  21 Cu     5.802140    3.133958   11.819633    ( 0.0000,  0.0000,  0.0000)
  22 Cu     4.497030    1.838345   13.700338    ( 0.0000,  0.0000,  0.0000)
  23 Cu     4.496181    4.449919   13.699121    ( 0.0000,  0.0000,  0.0000)
  24 Cu     3.194287    3.155488   15.539948    ( 0.0000,  0.0000,  0.0000)
  25 Cu     5.805953    3.156179   15.545433    ( 0.0000,  0.0000,  0.0000)
  26 Cu     4.492851    1.853470   17.424126    ( 0.0000,  0.0000,  0.0000)
  27 Cu     4.499803    4.487213   17.435271    ( 0.0000,  0.0000,  0.0000)
  28 Cu     3.254514    3.184301   19.407858    ( 0.0000,  0.0000,  0.0000)
  29 Cu     5.803556    3.191016   19.415577    ( 0.0000,  0.0000,  0.0000)
  30 Cu     1.885465    4.414351    9.821888    ( 0.0000,  0.0000,  0.0000)
  31 Cu     1.905556    7.064528    9.829749    ( 0.0000,  0.0000,  0.0000)
  32 Cu     0.558605    5.742863   11.839552    ( 0.0000,  0.0000,  0.0000)
  33 Cu     3.197477    5.751830   11.815159    ( 0.0000,  0.0000,  0.0000)
  34 Cu     1.884759    4.449140   13.693005    ( 0.0000,  0.0000,  0.0000)
  35 Cu     1.888890    7.071120   13.700750    ( 0.0000,  0.0000,  0.0000)
  36 Cu     0.569102    5.773062   15.525405    ( 0.0000,  0.0000,  0.0000)
  37 Cu     3.193770    5.767293   15.538154    ( 0.0000,  0.0000,  0.0000)
  38 Cu     1.887530    4.470684   17.418447    ( 0.0000,  0.0000,  0.0000)
  39 Cu     1.875748    7.083705   17.405653    ( 0.0000,  0.0000,  0.0000)
  40 Cu     0.553799    5.780166   19.427495    ( 0.0000,  0.0000,  0.0000)
  41 Cu     3.156746    5.810877   19.449584    ( 0.0000,  0.0000,  0.0000)
  42 Cu     7.105996    4.419066    9.801229    ( 0.0000,  0.0000,  0.0000)
  43 Cu     7.113130    7.049901    9.808695    ( 0.0000,  0.0000,  0.0000)
  44 Cu     5.785621    5.755732   11.798093    ( 0.0000,  0.0000,  0.0000)
  45 Cu     7.108178    4.448235   13.705013    ( 0.0000,  0.0000,  0.0000)
  46 Cu     7.108789    7.070130   13.694435    ( 0.0000,  0.0000,  0.0000)
  47 Cu     5.798024    5.778742   15.529556    ( 0.0000,  0.0000,  0.0000)
  48 Cu     7.106651    4.494978   17.416882    ( 0.0000,  0.0000,  0.0000)
  49 Cu     7.091610    7.082592   17.437026    ( 0.0000,  0.0000,  0.0000)
  50 Cu     5.751664    5.787896   19.438708    ( 0.0000,  0.0000,  0.0000)
  51 Cu     4.463368    7.084355    9.797064    ( 0.0000,  0.0000,  0.0000)
  52 Cu     4.499894    7.073016   13.693786    ( 0.0000,  0.0000,  0.0000)
  53 Cu     4.497130    7.082323   17.447305    ( 0.0000,  0.0000,  0.0000)
  54 Cl     4.649738    3.705159   21.289525    ( 0.0000,  0.0000,  0.0000)
  55 Cl     3.044210    3.881543    7.951446    ( 0.0000,  0.0000,  0.0000)
  56 Cl     1.377423   -0.822779   21.303465    ( 0.0000,  0.0000,  0.0000)
  57 Cl     6.308631    8.408103    7.933755    ( 0.0000,  0.0000,  0.0000)
  58 Cl     1.338645    4.713831   21.342147    ( 0.0000,  0.0000,  0.0000)
  59 Cl     6.356807    2.865961    7.896385    ( 0.0000,  0.0000,  0.0000)
  60 Cl     0.316320   -0.054385    8.010734    ( 0.0000,  0.0000,  0.0000)
  61 Cl     7.378216    7.631479   21.217255    ( 0.0000,  0.0000,  0.0000)
  62 Cl     7.428488    1.929423   21.270122    ( 0.0000,  0.0000,  0.0000)
  63 Cl     0.262612    5.657829    7.972875    ( 0.0000,  0.0000,  0.0000)
  64 Cl     5.113811    5.790795    6.042027    ( 0.0000,  0.0000,  0.0000)
  65 Cl     2.592250    1.773557   23.195812    ( 0.0000,  0.0000,  0.0000)
  66 Cl     6.273911    5.555105   23.674976    ( 0.0000,  0.0000,  0.0000)
  67 Cl     1.405731    2.045450    5.568447    ( 0.0000,  0.0000,  0.0000)

Unit cell:
           periodic     x           y           z      points  spacing
  1. axis:    yes    7.851007    0.000000    0.000000    45     0.1655
  2. axis:    yes    2.617002    7.851007    0.000000    48     0.1636
  3. axis:    yes    0.000000    0.000000   30.683867   175     0.1753

  Lengths:   7.851007   8.275688  30.683867
  Angles:   90.000000  90.000000  71.565053

Effective grid spacing dv^(1/3) = 0.1710

     iter     time        total  log10-change:
                         energy  eigst   dens
iter:   1 08:04:02 -4791.108170  -0.40
iter:   2 08:05:15 -4757.709332  +0.39  -0.87
iter:   3 08:06:29 -4636.753429  -0.14  -1.09
iter:   4 08:07:31 -4633.029646  -1.62  -1.41
iter:   5 08:08:32 -4607.993530  -1.95  -1.46
iter:   6 08:09:40 -4603.426851  -2.13  -1.69
iter:   7 08:10:50 -4618.528392  -1.31  -1.77
iter:   8 08:12:01 -4600.303889  -2.49  -1.41
iter:   9 08:13:07 -4609.354998  -1.96  -1.83
iter:  10 08:14:17 -4602.436771  -2.04  -1.56
iter:  11 08:15:38 -4596.537692  -2.72  -1.74
iter:  12 08:17:15 -4595.213688  -3.43  -1.96
iter:  13 08:18:28 -4593.801180  -2.83  -2.02
iter:  14 08:19:41 -4594.090079  -2.94  -1.95
iter:  15 08:20:42 -4593.390235  -3.32  -1.95
iter:  16 08:21:40 -4593.205546  -4.09  -2.21
iter:  17 08:22:38 -4593.178837c -4.83  -2.28
iter:  18 08:23:36 -4593.206443c -4.14  -2.30
iter:  19 08:24:59 -4592.988282c -4.40  -2.22
iter:  20 08:26:24 -4593.027383c -4.39  -2.36
iter:  21 08:27:23 -4593.059035c -3.98  -2.34
iter:  22 08:28:28 -4592.966178c -4.38  -2.28
iter:  23 08:29:29 -4592.897562c -5.19  -2.49
iter:  24 08:30:32 -4592.903799c -4.24  -2.59
iter:  25 08:31:38 -4592.897247c -5.09  -2.51
iter:  26 08:33:10 -4592.884885c -5.38  -2.61
iter:  27 08:34:43 -4592.851960c -3.76  -2.67
iter:  28 08:36:02 -4592.851005c -5.07  -2.81
iter:  29 08:37:03 -4592.892178c -5.03  -2.88
iter:  30 08:37:59 -4592.852976c -5.05  -2.85
iter:  31 08:38:55 -4592.866400c -5.29  -2.99
iter:  32 08:39:50 -4592.859198c -5.20  -2.94
iter:  33 08:40:46 -4592.868300c -5.53  -3.15
iter:  34 08:41:44 -4592.872838c -5.80  -3.18
iter:  35 08:42:43 -4592.862524c -6.32  -3.11
iter:  36 08:43:44 -4592.866862c -6.50  -3.40
iter:  37 08:44:45 -4592.863612c -6.10  -3.40
iter:  38 08:45:48 -4592.863423c -6.16  -3.50
iter:  39 08:46:47 -4592.863851c -6.79  -3.61
iter:  40 08:47:50 -4592.862765c -6.49  -3.63
iter:  41 08:48:47 -4592.861280c -6.48  -3.68
iter:  42 08:49:47 -4592.865819c -6.73  -3.58
iter:  43 08:50:49 -4592.862120c -6.62  -3.73
iter:  44 08:51:45 -4592.863898c -7.46c -3.81
iter:  45 08:52:57 -4592.863334c -7.08  -3.85
iter:  46 08:53:56 -4592.863132c -7.00  -3.87
iter:  47 08:54:59 -4592.862963c -7.49c -3.97
iter:  48 08:55:56 -4592.863268c -7.95c -4.00c

Converged after 48 iterations.

Dipole moment: (-11.856183, -12.595156, 0.001243) |e|*Ang

Energy contributions relative to reference atoms: (reference = -2606927.690960)

Kinetic:       +457.633319
Potential:     -497.750796
External:        +0.000000
XC:            -4550.923845
Entropy (-ST):   -1.386962
Local:           -1.128465
--------------------------
Free energy:   -4593.556749
Extrapolated:  -4592.863268

Showing only first 2 kpts
 Kpt  Band  Eigenvalues  Occupancy
  0   344     -1.19438    1.65977
  0   345     -1.19295    1.65573
  0   346     -1.16814    1.57920
  0   347     -1.13035    1.44003

  1   344     -1.17178    1.59116
  1   345     -1.15559    1.53596
  1   346     -1.12082    1.40081
  1   347     -1.06805    1.15940


Fermi level: -1.03589

No gap

Forces in eV/Ang:
  0 Cu   -0.00424    0.08438   -0.04663
  1 Cu   -0.13139    0.07668   -0.25132
  2 Cu    0.08583   -0.07813   -0.24420
  3 Cu   -0.00560    0.00124   -0.13491
  4 Cu   -0.00453   -0.00163    0.12001
  5 Cu    0.01296   -0.01357    0.11688
  6 Cu   -0.00745    0.00682    0.43115
  7 Cu    0.05950    0.12712    0.22878
  8 Cu   -0.18397    0.09821    0.05760
  9 Cu   -0.01252    0.07462   -0.35313
 10 Cu    0.00601   -0.00004    0.15060
 11 Cu    0.07937   -0.02710    0.22367
 12 Cu    0.13635   -0.02114   -0.02158
 13 Cu    0.02977   -0.02694   -0.36167
 14 Cu   -0.00441    0.01087   -0.13535
 15 Cu   -0.00645   -0.00107    0.13089
 16 Cu   -0.07563   -0.01259    0.52119
 17 Cu    0.51648    0.28897   -0.47865
 18 Cu    0.09344    0.01276   -0.16340
 19 Cu    0.20735    0.04599   -0.08573
 20 Cu   -0.00163    0.01759   -0.21597
 21 Cu    0.01242    0.01531   -0.41816
 22 Cu    0.01186    0.00485   -0.13345
 23 Cu    0.01026   -0.00718   -0.12042
 24 Cu   -0.00998    0.00667    0.12108
 25 Cu    0.00114   -0.00614    0.12153
 26 Cu    0.07444   -0.00338    0.30194
 27 Cu   -0.00107   -0.01693    0.22326
 28 Cu   -0.21259   -0.04941    0.09003
 29 Cu    0.43150   -0.11371   -0.17558
 30 Cu   -0.42008    0.11380    0.16493
 31 Cu   -0.50645   -0.26519    0.46822
 32 Cu    0.07494    0.01524   -0.51752
 33 Cu   -0.07171    0.00483   -0.29882
 34 Cu   -0.00147    0.00563   -0.12170
 35 Cu    0.00682    0.00158   -0.13228
 36 Cu    0.00405   -0.01116    0.13572
 37 Cu   -0.01211   -0.00497    0.13323
 38 Cu   -0.00758   -0.01097    0.42472
 39 Cu   -0.02635    0.02512    0.36424
 40 Cu   -0.11938    0.00268    0.05283
 41 Cu   -0.10190   -0.02645    0.14654
 42 Cu   -0.09024    0.02071   -0.20864
 43 Cu   -0.05497   -0.12559   -0.21854
 44 Cu    0.00548   -0.00633   -0.42950
 45 Cu   -0.00530    0.00051   -0.15004
 46 Cu    0.00349    0.00109   -0.11965
 47 Cu    0.00559   -0.00236    0.13418
 48 Cu    0.01016   -0.07562    0.35942
 49 Cu    0.13070   -0.07603    0.24549
 50 Cu    0.00298   -0.08723    0.05184
 51 Cu    0.18104   -0.09159   -0.06258
 52 Cu   -0.01285    0.01416   -0.11790
 53 Cu   -0.08877    0.07559    0.24378
 54 Cl   -0.27725    0.04937   -0.55379
 55 Cl    0.27389   -0.05223    0.56751
 56 Cl    0.17626   -0.02500   -1.03046
 57 Cl   -0.16579    0.03982    1.04141
 58 Cl    0.04518    0.02615   -0.97390
 59 Cl   -0.05651   -0.00972    0.94659
 60 Cl    0.46896    0.22529    0.30479
 61 Cl   -0.47817   -0.24052   -0.28779
 62 Cl    0.03599   -0.08128   -1.08929
 63 Cl   -0.03777    0.07798    1.07495
 64 Cl   -0.02045    0.00741    0.00405
 65 Cl    0.01952   -0.00603   -0.00478
 66 Cl    0.00846   -0.00686   -0.00052
 67 Cl   -0.00721    0.00821   -0.00157

System changes: positions 

Initializing position-dependent things.

Density initialized from wave functions
                                        
                                        
                                        
                                        
                                        
                          Cl            
                                        
                              Cl        
               Cl                       
             Cl                         
            Cu    Cu Cl  Cu             
                           Cl           
          Cl    CCu    CCu   Cu         
         Cu                             
               Cu    CCu    Cu          
            CCu    Cu    CCu            
                                        
          Cu    CCu    CCu   Cu         
         Cu   CCu    CCu    Cu          
                                        
            CCu    Cu    CCu            
          Cu    CCu    Cu               
                             Cu         
         Cu   CCu    CCu    Cu          
           Cl                           
             Cu  Cl Cu    Cu            
                         Cl             
                       Cl               
        Cl                              
                                        
            Cl                          
                                        
                                        
                                        
                                        
                                        

Positions:
   0 Cu     1.946322    1.828399    9.770849    ( 0.0000,  0.0000,  0.0000)
   1 Cu     0.587874    0.531874   11.772689    ( 0.0000,  0.0000,  0.0000)
   2 Cu     3.201171    0.516399   11.762657    ( 0.0000,  0.0000,  0.0000)
   3 Cu     1.893015    1.827601   13.699482    ( 0.0000,  0.0000,  0.0000)
   4 Cu     0.581550    0.535238   15.554557    ( 0.0000,  0.0000,  0.0000)
   5 Cu     3.192931    0.531837   15.553714    ( 0.0000,  0.0000,  0.0000)
   6 Cu     1.904048    1.848644   17.490955    ( 0.0000,  0.0000,  0.0000)
   7 Cu     0.583578    0.564014   19.513100    ( 0.0000,  0.0000,  0.0000)
   8 Cu     3.227542    0.520555   19.482002    ( 0.0000,  0.0000,  0.0000)
   9 Cu     0.582404    3.117255   11.778314    ( 0.0000,  0.0000,  0.0000)
  10 Cu     0.582152    3.156931   15.543052    ( 0.0000,  0.0000,  0.0000)
  11 Cu     0.588430    3.179594   19.518783    ( 0.0000,  0.0000,  0.0000)
  12 Cu     7.141602    1.831037    9.749777    ( 0.0000,  0.0000,  0.0000)
  13 Cu     5.817926    0.517346   11.788673    ( 0.0000,  0.0000,  0.0000)
  14 Cu     7.120782    1.832432   13.701872    ( 0.0000,  0.0000,  0.0000)
  15 Cu     5.801469    0.533472   15.548018    ( 0.0000,  0.0000,  0.0000)
  16 Cu     7.123914    1.860677   17.453170    ( 0.0000,  0.0000,  0.0000)
  17 Cu     5.818268    0.554441   19.429537    ( 0.0000,  0.0000,  0.0000)
  18 Cu     4.538381    1.782469    9.716596    ( 0.0000,  0.0000,  0.0000)
  19 Cu     4.437014    4.418624    9.781575    ( 0.0000,  0.0000,  0.0000)
  20 Cu     3.192807    3.119392   11.774819    ( 0.0000,  0.0000,  0.0000)
  21 Cu     5.802375    3.136192   11.773665    ( 0.0000,  0.0000,  0.0000)
  22 Cu     4.498737    1.839470   13.689156    ( 0.0000,  0.0000,  0.0000)
  23 Cu     4.497094    4.449868   13.688902    ( 0.0000,  0.0000,  0.0000)
  24 Cu     3.193432    3.155466   15.550192    ( 0.0000,  0.0000,  0.0000)
  25 Cu     5.806368    3.156032   15.556016    ( 0.0000,  0.0000,  0.0000)
  26 Cu     4.501078    1.853187   17.458922    ( 0.0000,  0.0000,  0.0000)
  27 Cu     4.497779    4.486235   17.463778    ( 0.0000,  0.0000,  0.0000)
  28 Cu     3.252645    3.186523   19.459711    ( 0.0000,  0.0000,  0.0000)
  29 Cu     5.827629    3.186850   19.463876    ( 0.0000,  0.0000,  0.0000)
  30 Cu     1.861838    4.418550    9.772696    ( 0.0000,  0.0000,  0.0000)
  31 Cu     1.875242    7.051324    9.809230    ( 0.0000,  0.0000,  0.0000)
  32 Cu     0.567042    5.744579   11.785521    ( 0.0000,  0.0000,  0.0000)
  33 Cu     3.189495    5.752179   11.780588    ( 0.0000,  0.0000,  0.0000)
  34 Cu     1.884376    4.449221   13.682342    ( 0.0000,  0.0000,  0.0000)
  35 Cu     1.889170    7.071948   13.690580    ( 0.0000,  0.0000,  0.0000)
  36 Cu     0.569849    5.772736   15.536348    ( 0.0000,  0.0000,  0.0000)
  37 Cu     3.192043    5.766148   15.549097    ( 0.0000,  0.0000,  0.0000)
  38 Cu     1.887781    4.468908   17.465015    ( 0.0000,  0.0000,  0.0000)
  39 Cu     1.872647    7.087258   17.449645    ( 0.0000,  0.0000,  0.0000)
  40 Cu     0.548878    5.773067   19.492591    ( 0.0000,  0.0000,  0.0000)
  41 Cu     3.153459    5.822989   19.518135    ( 0.0000,  0.0000,  0.0000)
  42 Cu     7.102805    4.424872    9.722263    ( 0.0000,  0.0000,  0.0000)
  43 Cu     7.106378    7.040673    9.726705    ( 0.0000,  0.0000,  0.0000)
  44 Cu     5.786623    5.756270   11.748442    ( 0.0000,  0.0000,  0.0000)
  45 Cu     7.108365    4.448144   13.695021    ( 0.0000,  0.0000,  0.0000)
  46 Cu     7.109435    7.070059   13.683739    ( 0.0000,  0.0000,  0.0000)
  47 Cu     5.798101    5.777921   15.539337    ( 0.0000,  0.0000,  0.0000)
  48 Cu     7.108335    4.487544   17.460861    ( 0.0000,  0.0000,  0.0000)
  49 Cu     7.103449    7.073593   17.466306    ( 0.0000,  0.0000,  0.0000)
  50 Cu     5.745018    5.778363   19.468248    ( 0.0000,  0.0000,  0.0000)
  51 Cu     4.463523    7.085949    9.754211    ( 0.0000,  0.0000,  0.0000)
  52 Cu     4.498369    7.073641   13.684857    ( 0.0000,  0.0000,  0.0000)
  53 Cu     4.490115    7.089563   17.475785    ( 0.0000,  0.0000,  0.0000)
  54 Cl     4.626089    3.702040   21.139384    ( 0.0000,  0.0000,  0.0000)
  55 Cl     3.067643    3.884431    8.103066    ( 0.0000,  0.0000,  0.0000)
  56 Cl     1.386413   -0.822817   21.106335    ( 0.0000,  0.0000,  0.0000)
  57 Cl     6.300944    8.409373    8.132218    ( 0.0000,  0.0000,  0.0000)
  58 Cl     1.334783    4.722585   21.148801    ( 0.0000,  0.0000,  0.0000)
  59 Cl     6.359684    2.858255    8.087220    ( 0.0000,  0.0000,  0.0000)
  60 Cl     0.360734   -0.036767    8.146081    ( 0.0000,  0.0000,  0.0000)
  61 Cl     7.332578    7.612588   21.082687    ( 0.0000,  0.0000,  0.0000)
  62 Cl     7.442567    1.919209   21.070879    ( 0.0000,  0.0000,  0.0000)
  63 Cl     0.248164    5.667463    8.171064    ( 0.0000,  0.0000,  0.0000)
  64 Cl     5.112460    5.793113    6.048890    ( 0.0000,  0.0000,  0.0000)
  65 Cl     2.593662    1.771258   23.188990    ( 0.0000,  0.0000,  0.0000)
  66 Cl     6.275643    5.555816   23.670041    ( 0.0000,  0.0000,  0.0000)
  67 Cl     1.403982    2.044782    5.573296    ( 0.0000,  0.0000,  0.0000)

Unit cell:
           periodic     x           y           z      points  spacing
  1. axis:    yes    7.851007    0.000000    0.000000    45     0.1655
  2. axis:    yes    2.617002    7.851007    0.000000    48     0.1636
  3. axis:    yes    0.000000    0.000000   30.683867   175     0.1753

  Lengths:   7.851007   8.275688  30.683867
  Angles:   90.000000  90.000000  71.565053

Effective grid spacing dv^(1/3) = 0.1710

     iter     time        total  log10-change:
                         energy  eigst   dens
iter:   1 08:57:45 -4793.039825  -0.25
iter:   2 08:58:49 -4706.305528  +0.19  -0.90
iter:   3 08:59:58 -4615.696302  -0.61  -1.22
iter:   4 09:00:56 -4608.918600  -2.28  -1.62
iter:   5 09:01:55 -4614.977640  -1.92  -1.75
iter:   6 09:03:07 -4604.297441  -1.58  -1.62
iter:   7 09:04:13 -4624.801302  -1.46  -1.79
iter:   8 09:05:10 -4596.401280  -1.94  -1.27
iter:   9 09:06:17 -4594.277468  -3.28  -1.99
iter:  10 09:07:37 -4594.297064  -4.51  -2.13
iter:  11 09:08:59 -4594.841163  -2.95  -2.13
iter:  12 09:10:00 -4594.725566  -3.79  -1.85
iter:  13 09:10:55 -4596.665025  -3.77  -1.81
iter:  14 09:11:53 -4594.287480  -2.88  -1.68
iter:  15 09:12:58 -4593.588673  -3.69  -2.08
iter:  16 09:13:58 -4593.332302  -4.07  -2.25
iter:  17 09:15:10 -4593.322169c -4.89  -2.29
iter:  18 09:16:19 -4593.018051c -3.57  -2.33
iter:  19 09:17:24 -4592.998390c -4.40  -2.34
iter:  20 09:18:47 -4593.036740c -4.08  -2.43
iter:  21 09:19:50 -4592.996197c -4.61  -2.49
iter:  22 09:20:51 -4593.040653c -4.46  -2.41
iter:  23 09:21:50 -4593.001576c -4.66  -2.55
iter:  24 09:22:49 -4593.001930c -4.82  -2.62
iter:  25 09:24:07 -4592.948626c -5.08  -2.53
iter:  26 09:25:03 -4592.936054c -4.05  -2.75
iter:  27 09:26:03 -4592.942547c -4.38  -2.57
iter:  28 09:27:02 -4592.954413c -5.39  -2.77
iter:  29 09:28:03 -4592.928190c -4.61  -2.84
iter:  30 09:28:57 -4592.914030c -5.42  -3.10
iter:  31 09:29:55 -4592.921885c -5.86  -3.12
iter:  32 09:30:55 -4592.922086c -5.97  -3.12
iter:  33 09:31:54 -4592.918963c -5.83  -3.26
iter:  34 09:32:51 -4592.924437c -5.95  -3.37
iter:  35 09:33:47 -4592.923966c -6.08  -3.42
iter:  36 09:34:47 -4592.922615c -6.68  -3.58
iter:  37 09:35:47 -4592.925399c -5.87  -3.51
iter:  38 09:36:47 -4592.925369c -6.49  -3.54
iter:  39 09:37:42 -4592.922944c -6.90  -3.76
iter:  40 09:38:42 -4592.925487c -7.36  -3.87
iter:  41 09:39:42 -4592.924928c -7.60c -3.81
iter:  42 09:40:42 -4592.925027c -7.76c -3.83
iter:  43 09:41:38 -4592.925136c -8.08c -3.86
iter:  44 09:42:37 -4592.923835c -8.10c -3.87
iter:  45 09:43:37 -4592.920068c -6.79  -3.89
iter:  46 09:44:37 -4592.925298c -6.95  -3.77
iter:  47 09:45:37 -4592.923867c -6.68  -3.87
iter:  48 09:46:33 -4592.923020c -7.41c -4.01c

Converged after 48 iterations.

Dipole moment: (-11.588742, -13.686173, 0.001914) |e|*Ang

Energy contributions relative to reference atoms: (reference = -2606927.690960)

Kinetic:       +516.585113
Potential:     -545.551922
External:        +0.000000
XC:            -4562.357359
Entropy (-ST):   -1.317300
Local:           -0.940202
--------------------------
Free energy:   -4593.581670
Extrapolated:  -4592.923020

Showing only first 2 kpts
 Kpt  Band  Eigenvalues  Occupancy
  0   344     -1.09920    1.67659
  0   345     -1.09334    1.66039
  0   346     -1.07144    1.59413
  0   347     -1.01874    1.39739

  1   344     -1.07690    1.61150
  1   345     -1.06197    1.56263
  1   346     -1.01056    1.36238
  1   347     -0.97776    1.21236


Fermi level: -0.93464

No gap

Forces in eV/Ang:
  0 Cu   -0.09499    0.12774    0.24088
  1 Cu   -0.06937    0.06457   -0.17978
  2 Cu    0.06173   -0.05439   -0.16088
  3 Cu   -0.01228   -0.00258   -0.14666
  4 Cu   -0.01492    0.02269    0.14306
  5 Cu    0.00764   -0.00462    0.14903
  6 Cu    0.00979    0.02159    0.32877
  7 Cu    0.15059    0.18584   -1.02610
  8 Cu   -0.32854    0.32047   -0.44347
  9 Cu   -0.00441    0.05238   -0.23667
 10 Cu   -0.00070   -0.01276    0.19190
 11 Cu    0.39734    0.20581   -0.94229
 12 Cu    0.75168   -0.81281    1.54790
 13 Cu   -0.01011    0.00376   -0.23010
 14 Cu   -0.00850    0.02536   -0.14399
 15 Cu    0.00604    0.00909    0.14023
 16 Cu    0.01239    0.00510    0.31327
 17 Cu    0.72076    0.41167   -1.25853
 18 Cu    0.49708    0.59633    1.01041
 19 Cu    0.56915    0.29150    0.66458
 20 Cu   -0.00130    0.00436   -0.15275
 21 Cu    0.00238    0.00599   -0.30451
 22 Cu    0.01984    0.00432   -0.15244
 23 Cu    0.01753   -0.00062   -0.13426
 24 Cu   -0.01674    0.00126    0.13843
 25 Cu    0.01524   -0.01802    0.13580
 26 Cu    0.00587   -0.00770    0.21489
 27 Cu    0.00185   -0.00532    0.15946
 28 Cu   -0.57380   -0.29357   -0.66628
 29 Cu    0.90800   -0.23366   -1.38809
 30 Cu   -0.89380    0.24110    1.37096
 31 Cu   -0.73915   -0.39777    1.28292
 32 Cu   -0.00964   -0.00327   -0.30868
 33 Cu   -0.00643    0.00861   -0.21290
 34 Cu   -0.01602    0.01723   -0.13239
 35 Cu   -0.00447   -0.00794   -0.13611
 36 Cu    0.00829   -0.02609    0.14721
 37 Cu   -0.02030   -0.00528    0.15549
 38 Cu   -0.00364   -0.00457    0.30878
 39 Cu    0.01129   -0.00449    0.23159
 40 Cu   -0.72011    0.78849   -1.48846
 41 Cu   -0.52133   -0.63272   -1.07430
 42 Cu   -0.44496   -0.26192    0.95339
 43 Cu   -0.10960   -0.22329    1.03398
 44 Cu   -0.01192   -0.02042   -0.33043
 45 Cu    0.00104    0.01338   -0.18852
 46 Cu    0.01428   -0.02311   -0.14014
 47 Cu    0.01242    0.00174    0.15091
 48 Cu    0.00531   -0.05251    0.23829
 49 Cu    0.07192   -0.06403    0.17755
 50 Cu    0.09383   -0.13215   -0.23697
 51 Cu    0.33542   -0.31646    0.45339
 52 Cu   -0.00897    0.00474   -0.14657
 53 Cu   -0.06427    0.05541    0.16365
 54 Cl   -0.47191    0.43312    1.31336
 55 Cl    0.47008   -0.44808   -1.29645
 56 Cl    0.79709    0.11635    0.98998
 57 Cl   -0.78246   -0.05866   -0.97611
 58 Cl    0.70794   -0.52272    1.17313
 59 Cl   -0.71983    0.56764   -1.21199
 60 Cl    0.54877    0.52335   -0.99045
 61 Cl   -0.55422   -0.52205    0.95546
 62 Cl   -0.59945   -0.19414    0.67233
 63 Cl    0.60151    0.23422   -0.70600
 64 Cl    0.00152    0.01008    0.19196
 65 Cl   -0.00203   -0.01251   -0.19573
 66 Cl    0.00749    0.00151   -0.15328
 67 Cl   -0.00755    0.00431    0.14653

System changes: positions 

Initializing position-dependent things.

Density initialized from wave functions
                                       
                                       
                                       
                                       
                                       
                         Cl            
                                       
                             Cl        
              Cl                       
             Cl     Cl                 
            Cu    Cu    Cu             
                          Cl           
          Cl    CCu   CCu   Cu         
                                       
         Cu   CCu   CCu    Cu          
            CCu   CCu   CCu            
                                       
          Cu    CCu   CCu   Cu         
         Cu   CCu   CCu    Cu          
                                       
            CCu   CCu   CCu            
          Cu    CCu   CCu   Cu         
                                       
         Cu   CCu   CCu    Cu          
           Cl                          
             Cu    Cu    Cu            
                 Cl     Cl             
                       Cl              
        Cl                             
                                       
            Cl                         
                                       
                                       
                                       
                                       
                                       

Positions:
   0 Cu     1.942668    1.823082    9.786497    ( 0.0000,  0.0000,  0.0000)
   1 Cu     0.594361    0.526968   11.789020    ( 0.0000,  0.0000,  0.0000)
   2 Cu     3.197508    0.520518   11.778246    ( 0.0000,  0.0000,  0.0000)
   3 Cu     1.893093    1.827217   13.704846    ( 0.0000,  0.0000,  0.0000)
   4 Cu     0.581965    0.535210   15.548769    ( 0.0000,  0.0000,  0.0000)
   5 Cu     3.192098    0.532163   15.548961    ( 0.0000,  0.0000,  0.0000)
   6 Cu     1.904656    1.848964   17.463865    ( 0.0000,  0.0000,  0.0000)
   7 Cu     0.579926    0.558892   19.468021    ( 0.0000,  0.0000,  0.0000)
   8 Cu     3.227692    0.521248   19.459530    ( 0.0000,  0.0000,  0.0000)
   9 Cu     0.583495    3.113242   11.801892    ( 0.0000,  0.0000,  0.0000)
  10 Cu     0.582214    3.156815   15.537578    ( 0.0000,  0.0000,  0.0000)
  11 Cu     0.586878    3.182754   19.475089    ( 0.0000,  0.0000,  0.0000)
  12 Cu     7.138377    1.827664    9.783719    ( 0.0000,  0.0000,  0.0000)
  13 Cu     5.816067    0.519434   11.812568    ( 0.0000,  0.0000,  0.0000)
  14 Cu     7.121195    1.832274   13.707845    ( 0.0000,  0.0000,  0.0000)
  15 Cu     5.801628    0.533930   15.542616    ( 0.0000,  0.0000,  0.0000)
  16 Cu     7.128541    1.861427   17.423579    ( 0.0000,  0.0000,  0.0000)
  17 Cu     5.801145    0.546316   19.418843    ( 0.0000,  0.0000,  0.0000)
  18 Cu     4.536705    1.789497    9.754512    ( 0.0000,  0.0000,  0.0000)
  19 Cu     4.436237    4.420193    9.809342    ( 0.0000,  0.0000,  0.0000)
  20 Cu     3.191857    3.118842   11.789956    ( 0.0000,  0.0000,  0.0000)
  21 Cu     5.802247    3.134976   11.798692    ( 0.0000,  0.0000,  0.0000)
  22 Cu     4.497808    1.838858   13.695244    ( 0.0000,  0.0000,  0.0000)
  23 Cu     4.496597    4.449896   13.694465    ( 0.0000,  0.0000,  0.0000)
  24 Cu     3.193897    3.155478   15.544614    ( 0.0000,  0.0000,  0.0000)
  25 Cu     5.806142    3.156112   15.550254    ( 0.0000,  0.0000,  0.0000)
  26 Cu     4.496599    1.853341   17.439977    ( 0.0000,  0.0000,  0.0000)
  27 Cu     4.498881    4.486768   17.448258    ( 0.0000,  0.0000,  0.0000)
  28 Cu     3.253663    3.185313   19.431480    ( 0.0000,  0.0000,  0.0000)
  29 Cu     5.814522    3.189118   19.437580    ( 0.0000,  0.0000,  0.0000)
  30 Cu     1.874702    4.416264    9.799479    ( 0.0000,  0.0000,  0.0000)
  31 Cu     1.891747    7.058513    9.820402    ( 0.0000,  0.0000,  0.0000)
  32 Cu     0.562448    5.743644   11.814939    ( 0.0000,  0.0000,  0.0000)
  33 Cu     3.193841    5.751989   11.799410    ( 0.0000,  0.0000,  0.0000)
  34 Cu     1.884584    4.449177   13.688147    ( 0.0000,  0.0000,  0.0000)
  35 Cu     1.889017    7.071498   13.696117    ( 0.0000,  0.0000,  0.0000)
  36 Cu     0.569442    5.772913   15.530390    ( 0.0000,  0.0000,  0.0000)
  37 Cu     3.192983    5.766772   15.543139    ( 0.0000,  0.0000,  0.0000)
  38 Cu     1.887644    4.469875   17.439661    ( 0.0000,  0.0000,  0.0000)
  39 Cu     1.874335    7.085324   17.425694    ( 0.0000,  0.0000,  0.0000)
  40 Cu     0.551557    5.776932   19.457150    ( 0.0000,  0.0000,  0.0000)
  41 Cu     3.155248    5.816395   19.480812    ( 0.0000,  0.0000,  0.0000)
  42 Cu     7.104542    4.421711    9.765256    ( 0.0000,  0.0000,  0.0000)
  43 Cu     7.110054    7.045697    9.771345    ( 0.0000,  0.0000,  0.0000)
  44 Cu     5.786078    5.755977   11.775474    ( 0.0000,  0.0000,  0.0000)
  45 Cu     7.108263    4.448193   13.700461    ( 0.0000,  0.0000,  0.0000)
  46 Cu     7.109083    7.070098   13.689562    ( 0.0000,  0.0000,  0.0000)
  47 Cu     5.798059    5.778368   15.534012    ( 0.0000,  0.0000,  0.0000)
  48 Cu     7.107418    4.491592   17.436917    ( 0.0000,  0.0000,  0.0000)
  49 Cu     7.097003    7.078492   17.450364    ( 0.0000,  0.0000,  0.0000)
  50 Cu     5.748636    5.783553   19.452165    ( 0.0000,  0.0000,  0.0000)
  51 Cu     4.463439    7.085081    9.777542    ( 0.0000,  0.0000,  0.0000)
  52 Cu     4.499199    7.073301   13.689718    ( 0.0000,  0.0000,  0.0000)
  53 Cu     4.493934    7.085621   17.460279    ( 0.0000,  0.0000,  0.0000)
  54 Cl     4.638965    3.703738   21.221129    ( 0.0000,  0.0000,  0.0000)
  55 Cl     3.054885    3.882859    8.020516    ( 0.0000,  0.0000,  0.0000)
  56 Cl     1.381518   -0.822797   21.213663    ( 0.0000,  0.0000,  0.0000)
  57 Cl     6.305129    8.408681    8.024164    ( 0.0000,  0.0000,  0.0000)
  58 Cl     1.336886    4.717819   21.254068    ( 0.0000,  0.0000,  0.0000)
  59 Cl     6.358118    2.862451    7.983319    ( 0.0000,  0.0000,  0.0000)
  60 Cl     0.336553   -0.046359    8.072391    ( 0.0000,  0.0000,  0.0000)
  61 Cl     7.357425    7.622873   21.155953    ( 0.0000,  0.0000,  0.0000)
  62 Cl     7.434902    1.924770   21.179357    ( 0.0000,  0.0000,  0.0000)
  63 Cl     0.256030    5.662218    8.063159    ( 0.0000,  0.0000,  0.0000)
  64 Cl     5.113196    5.791851    6.045153    ( 0.0000,  0.0000,  0.0000)
  65 Cl     2.592893    1.772510   23.192704    ( 0.0000,  0.0000,  0.0000)
  66 Cl     6.274700    5.555429   23.672728    ( 0.0000,  0.0000,  0.0000)
  67 Cl     1.404934    2.045146    5.570656    ( 0.0000,  0.0000,  0.0000)

Unit cell:
           periodic     x           y           z      points  spacing
  1. axis:    yes    7.851007    0.000000    0.000000    45     0.1655
  2. axis:    yes    2.617002    7.851007    0.000000    48     0.1636
  3. axis:    yes    0.000000    0.000000   30.683867   175     0.1753

  Lengths:   7.851007   8.275688  30.683867
  Angles:   90.000000  90.000000  71.565053

Effective grid spacing dv^(1/3) = 0.1710

     iter     time        total  log10-change:
                         energy  eigst   dens
iter:   1 09:48:08 -4638.589982  -0.89
iter:   2 09:49:03 -4607.684473  -1.01  -1.44
iter:   3 09:50:18 -4595.759000  -2.64  -1.43
iter:   4 09:51:23 -4594.455078  -2.83  -2.08
iter:   5 09:52:23 -4593.961090  -2.80  -2.16
iter:   6 09:53:36 -4593.791593  -3.73  -2.15
iter:   7 09:54:38 -4594.243597  -2.46  -2.24
iter:   8 09:55:36 -4594.238443  -2.57  -2.02
iter:   9 09:56:33 -4593.989639c -3.02  -2.13
iter:  10 09:57:34 -4593.548722  -3.85  -2.22
iter:  11 09:58:36 -4593.526943  -4.34  -2.44
iter:  12 09:59:37 -4593.481474c -4.73  -2.56
iter:  13 10:00:57 -4593.460858c -4.31  -2.66
iter:  14 10:01:57 -4593.568797c -3.95  -2.76
iter:  15 10:02:56 -4593.487286c -4.92  -2.49
iter:  16 10:03:56 -4593.460497c -4.82  -2.71
iter:  17 10:05:12 -4593.456692c -6.01  -2.76
iter:  18 10:06:24 -4593.509049c -4.50  -2.77
iter:  19 10:07:27 -4593.446798c -5.00  -2.50
iter:  20 10:08:48 -4593.474277c -3.59  -2.81
iter:  21 10:09:57 -4593.464011c -4.22  -2.53
iter:  22 10:11:01 -4593.421005c -4.65  -2.82
iter:  23 10:12:09 -4593.415649c -5.14  -3.05
iter:  24 10:13:34 -4593.410880c -5.82  -3.06
iter:  25 10:14:50 -4593.416695c -4.66  -3.12
iter:  26 10:16:16 -4593.422116c -4.63  -3.03
iter:  27 10:17:17 -4593.428190c -5.05  -3.05
iter:  28 10:18:12 -4593.415005c -5.67  -3.06
iter:  29 10:19:11 -4593.419452c -5.94  -3.52
iter:  30 10:20:13 -4593.413740c -5.60  -3.55
iter:  31 10:21:27 -4593.413137c -5.82  -3.67
iter:  32 10:22:39 -4593.411366c -5.76  -3.81
iter:  33 10:23:53 -4593.413511c -6.71  -3.88
iter:  34 10:24:57 -4593.411960c -7.05  -3.90
iter:  35 10:26:00 -4593.412425c -6.09  -3.86
iter:  36 10:26:56 -4593.411398c -6.88  -4.13c
iter:  37 10:27:56 -4593.412662c -7.04  -4.08c
iter:  38 10:28:58 -4593.413101c -7.19  -4.27c
iter:  39 10:30:03 -4593.412458c -7.65c -4.30c

Converged after 39 iterations.

Dipole moment: (-11.765483, -13.068038, 0.000728) |e|*Ang

Energy contributions relative to reference atoms: (reference = -2606927.690960)

Kinetic:       +481.642428
Potential:     -517.683789
External:        +0.000000
XC:            -4555.708706
Entropy (-ST):   -1.354045
Local:           -0.985368
--------------------------
Free energy:   -4594.089480
Extrapolated:  -4593.412458

Showing only first 2 kpts
 Kpt  Band  Eigenvalues  Occupancy
  0   344     -1.15777    1.68228
  0   345     -1.14981    1.66043
  0   346     -1.12532    1.58572
  0   347     -1.08120    1.42232

  1   344     -1.12922    1.59837
  1   345     -1.11597    1.55417
  1   346     -1.07261    1.38640
  1   347     -1.02903    1.18743


Fermi level: -0.99110

No gap

Forces in eV/Ang:
  0 Cu   -0.03519    0.09911    0.07357
  1 Cu   -0.10382    0.06962   -0.22015
  2 Cu    0.07804   -0.06690   -0.21116
  3 Cu   -0.00735   -0.00058   -0.14340
  4 Cu   -0.01033    0.00932    0.12943
  5 Cu    0.01054   -0.01002    0.13137
  6 Cu    0.00075    0.01383    0.37785
  7 Cu    0.09504    0.15128   -0.25077
  8 Cu   -0.22988    0.17565   -0.14464
  9 Cu   -0.00793    0.06358   -0.29598
 10 Cu    0.00359   -0.00632    0.17049
 11 Cu    0.18917    0.04806   -0.22946
 12 Cu    0.33697   -0.27978    0.56092
 13 Cu    0.00951   -0.01303   -0.29930
 14 Cu   -0.00678    0.01727   -0.14101
 15 Cu    0.00004    0.00501    0.13931
 16 Cu   -0.03363   -0.00582    0.42800
 17 Cu    0.60474    0.34468   -0.84326
 18 Cu    0.22570    0.20304    0.28537
 19 Cu    0.32422    0.13276    0.20658
 20 Cu   -0.00627    0.01245   -0.19029
 21 Cu    0.01162    0.00929   -0.36790
 22 Cu    0.01441    0.00469   -0.14539
 23 Cu    0.01415   -0.00552   -0.12936
 24 Cu   -0.01391    0.00562    0.13006
 25 Cu    0.00781   -0.01340    0.12962
 26 Cu    0.04015   -0.00536    0.25710
 27 Cu    0.00451   -0.01210    0.19289
 28 Cu   -0.32767   -0.13403   -0.20542
 29 Cu    0.60354   -0.15654   -0.68326
 30 Cu   -0.59166    0.15985    0.66992
 31 Cu   -0.60549   -0.32509    0.84520
 32 Cu    0.03359    0.00787   -0.42490
 33 Cu   -0.03883    0.00651   -0.25868
 34 Cu   -0.00819    0.01302   -0.12933
 35 Cu    0.00075   -0.00436   -0.13924
 36 Cu    0.00639   -0.01796    0.14152
 37 Cu   -0.01471   -0.00523    0.14597
 38 Cu   -0.00898   -0.00657    0.37069
 39 Cu   -0.00731    0.01191    0.29879
 40 Cu   -0.31268    0.25578   -0.51701
 41 Cu   -0.23932   -0.22417   -0.32358
 42 Cu   -0.21268   -0.07120    0.24009
 43 Cu   -0.07893   -0.16104    0.25907
 44 Cu   -0.00211   -0.01281   -0.38008
 45 Cu   -0.00300    0.00664   -0.16889
 46 Cu    0.00979   -0.00928   -0.12903
 47 Cu    0.00751   -0.00016    0.14369
 48 Cu    0.00705   -0.06392    0.29851
 49 Cu    0.10477   -0.06977    0.21227
 50 Cu    0.03225   -0.10226   -0.06917
 51 Cu    0.23141   -0.17151    0.14466
 52 Cu   -0.01126    0.00997   -0.13179
 53 Cu   -0.08085    0.06587    0.20761
 54 Cl   -0.36764    0.17498    0.18482
 55 Cl    0.36333   -0.18055   -0.16368
 56 Cl    0.37660    0.01539   -0.28167
 57 Cl   -0.36184    0.01355    0.30022
 58 Cl    0.24299   -0.15001   -0.19942
 59 Cl   -0.25590    0.17671    0.16620
 60 Cl    0.53567    0.33417   -0.25247
 61 Cl   -0.54472   -0.34678    0.25869
 62 Cl   -0.15252   -0.11465   -0.44379
 63 Cl    0.15353    0.12540    0.42396
 64 Cl   -0.01384    0.01282    0.04612
 65 Cl    0.01405   -0.01373   -0.05035
 66 Cl    0.00373    0.00525   -0.04411
 67 Cl   -0.00350   -0.00082    0.04112

System changes: positions 

Initializing position-dependent things.

Density initialized from wave functions
                                       
                                       
                                       
                                       
                                       
                         Cl            
                                       
                             Cl        
              Cl                       
             Cl                        
            Cu    CuCl  Cu             
                          Cl           
          Cl    CCu   CCu   Cu         
                                       
         Cu   CCu   CCu    Cu          
            CCu   CCu   CCu            
                                       
          Cu    CCu   CCu   Cu         
         Cu   CCu   CCu    Cu          
                                       
            CCu   CCu   CCu            
          Cu    CCu   CCu   Cu         
                                       
         Cu   CCu   CCu    Cu          
           Cl                          
             Cu  ClCu    Cu            
                        Cl             
                       Cl              
        Cl                             
                                       
            Cl                         
                                       
                                       
                                       
                                       
                                       

Positions:
   0 Cu     1.941498    1.836791    9.784121    ( 0.0000,  0.0000,  0.0000)
   1 Cu     0.580490    0.537039   11.756772    ( 0.0000,  0.0000,  0.0000)
   2 Cu     3.207332    0.511442   11.747465    ( 0.0000,  0.0000,  0.0000)
   3 Cu     1.892310    1.827418   13.687236    ( 0.0000,  0.0000,  0.0000)
   4 Cu     0.580527    0.536394   15.565470    ( 0.0000,  0.0000,  0.0000)
   5 Cu     3.193656    0.531089   15.565156    ( 0.0000,  0.0000,  0.0000)
   6 Cu     1.904471    1.850169   17.518468    ( 0.0000,  0.0000,  0.0000)
   7 Cu     0.592524    0.577472   19.467536    ( 0.0000,  0.0000,  0.0000)
   8 Cu     3.205297    0.538919   19.458544    ( 0.0000,  0.0000,  0.0000)
   9 Cu     0.582030    3.121936   11.757675    ( 0.0000,  0.0000,  0.0000)
  10 Cu     0.582424    3.156152   15.558071    ( 0.0000,  0.0000,  0.0000)
  11 Cu     0.608496    3.186750   19.476192    ( 0.0000,  0.0000,  0.0000)
  12 Cu     7.177397    1.797484    9.824323    ( 0.0000,  0.0000,  0.0000)
  13 Cu     5.817844    0.516972   11.767943    ( 0.0000,  0.0000,  0.0000)
  14 Cu     7.120179    1.834157   13.690047    ( 0.0000,  0.0000,  0.0000)
  15 Cu     5.801690    0.534194   15.559882    ( 0.0000,  0.0000,  0.0000)
  16 Cu     7.122970    1.860489   17.483620    ( 0.0000,  0.0000,  0.0000)
  17 Cu     5.872505    0.585837   19.340098    ( 0.0000,  0.0000,  0.0000)
  18 Cu     4.562394    1.807812    9.763002    ( 0.0000,  0.0000,  0.0000)
  19 Cu     4.469757    4.433517    9.814307    ( 0.0000,  0.0000,  0.0000)
  20 Cu     3.191913    3.120270   11.761230    ( 0.0000,  0.0000,  0.0000)
  21 Cu     5.803386    3.136624   11.746559    ( 0.0000,  0.0000,  0.0000)
  22 Cu     4.499937    1.839770   13.676777    ( 0.0000,  0.0000,  0.0000)
  23 Cu     4.498396    4.449417   13.677964    ( 0.0000,  0.0000,  0.0000)
  24 Cu     3.192146    3.155951   15.561192    ( 0.0000,  0.0000,  0.0000)
  25 Cu     5.807224    3.154619   15.566913    ( 0.0000,  0.0000,  0.0000)
  26 Cu     4.502866    1.852673   17.477296    ( 0.0000,  0.0000,  0.0000)
  27 Cu     4.498570    4.485376   17.477394    ( 0.0000,  0.0000,  0.0000)
  28 Cu     3.219686    3.171648   19.426901    ( 0.0000,  0.0000,  0.0000)
  29 Cu     5.884945    3.171808   19.381831    ( 0.0000,  0.0000,  0.0000)
  30 Cu     1.805571    4.433982    9.853545    ( 0.0000,  0.0000,  0.0000)
  31 Cu     1.820507    7.021409    9.899293    ( 0.0000,  0.0000,  0.0000)
  32 Cu     0.568008    5.744899   11.755303    ( 0.0000,  0.0000,  0.0000)
  33 Cu     3.187760    5.752783   11.761912    ( 0.0000,  0.0000,  0.0000)
  34 Cu     1.883480    4.450610   13.671493    ( 0.0000,  0.0000,  0.0000)
  35 Cu     1.889036    7.071291   13.678793    ( 0.0000,  0.0000,  0.0000)
  36 Cu     0.570416    5.770940   15.548227    ( 0.0000,  0.0000,  0.0000)
  37 Cu     3.190816    5.765789   15.561579    ( 0.0000,  0.0000,  0.0000)
  38 Cu     1.886894    4.468627   17.492203    ( 0.0000,  0.0000,  0.0000)
  39 Cu     1.872861    7.087580   17.470231    ( 0.0000,  0.0000,  0.0000)
  40 Cu     0.515397    5.804372   19.422109    ( 0.0000,  0.0000,  0.0000)
  41 Cu     3.128080    5.795594   19.467755    ( 0.0000,  0.0000,  0.0000)
  42 Cu     7.080271    4.415130    9.765557    ( 0.0000,  0.0000,  0.0000)
  43 Cu     7.099235    7.025984    9.772883    ( 0.0000,  0.0000,  0.0000)
  44 Cu     5.786106    5.754858   11.720604    ( 0.0000,  0.0000,  0.0000)
  45 Cu     7.108135    4.448934   13.680171    ( 0.0000,  0.0000,  0.0000)
  46 Cu     7.110436    7.068925   13.672871    ( 0.0000,  0.0000,  0.0000)
  47 Cu     5.798832    5.778058   15.551646    ( 0.0000,  0.0000,  0.0000)
  48 Cu     7.108706    4.482858   17.481551    ( 0.0000,  0.0000,  0.0000)
  49 Cu     7.110975    7.068390   17.481523    ( 0.0000,  0.0000,  0.0000)
  50 Cu     5.749518    5.769650   19.455267    ( 0.0000,  0.0000,  0.0000)
  51 Cu     4.486048    7.067857    9.777985    ( 0.0000,  0.0000,  0.0000)
  52 Cu     4.497554    7.074364   13.673416    ( 0.0000,  0.0000,  0.0000)
  53 Cu     4.483732    7.094504   17.490581    ( 0.0000,  0.0000,  0.0000)
  54 Cl     4.592568    3.721914   21.193661    ( 0.0000,  0.0000,  0.0000)
  55 Cl     3.100767    3.863997    8.050766    ( 0.0000,  0.0000,  0.0000)
  56 Cl     1.425480   -0.820260   21.123485    ( 0.0000,  0.0000,  0.0000)
  57 Cl     6.263203    8.409723    8.116830    ( 0.0000,  0.0000,  0.0000)
  58 Cl     1.362996    4.702935   21.173771    ( 0.0000,  0.0000,  0.0000)
  59 Cl     6.330357    2.880518    8.059325    ( 0.0000,  0.0000,  0.0000)
  60 Cl     0.406640   -0.005114    8.092405    ( 0.0000,  0.0000,  0.0000)
  61 Cl     7.285985    7.579999   21.136538    ( 0.0000,  0.0000,  0.0000)
  62 Cl     7.421755    1.908918   21.070535    ( 0.0000,  0.0000,  0.0000)
  63 Cl     0.269188    5.679197    8.169558    ( 0.0000,  0.0000,  0.0000)
  64 Cl     5.111532    5.794183    6.053543    ( 0.0000,  0.0000,  0.0000)
  65 Cl     2.594634    1.770039   23.183847    ( 0.0000,  0.0000,  0.0000)
  66 Cl     6.275660    5.556562   23.665318    ( 0.0000,  0.0000,  0.0000)
  67 Cl     1.403960    2.044524    5.577730    ( 0.0000,  0.0000,  0.0000)

Unit cell:
           periodic     x           y           z      points  spacing
  1. axis:    yes    7.851007    0.000000    0.000000    45     0.1655
  2. axis:    yes    2.617002    7.851007    0.000000    48     0.1636
  3. axis:    yes    0.000000    0.000000   30.683867   175     0.1753

  Lengths:   7.851007   8.275688  30.683867
  Angles:   90.000000  90.000000  71.565053

Effective grid spacing dv^(1/3) = 0.1710

     iter     time        total  log10-change:
                         energy  eigst   dens
iter:   1 10:31:37 -4640.030938  -0.88
iter:   2 10:32:37 -4637.166368  -0.65  -1.22
iter:   3 10:33:37 -4612.507220  -1.88  -1.60
iter:   4 10:34:32 -4607.202254  -2.54  -1.79
iter:   5 10:35:31 -4600.543268  -1.98  -1.85
iter:   6 10:36:38 -4596.412315  -2.36  -1.93
iter:   7 10:37:37 -4636.425194  -1.87  -2.04
iter:   8 10:38:36 -4594.374610  -2.28  -1.27
iter:   9 10:39:40 -4594.539711  -3.36  -2.32
iter:  10 10:40:38 -4594.424577c -4.28  -2.28
iter:  11 10:41:39 -4594.190095  -3.96  -2.34
iter:  12 10:42:55 -4594.196857c -3.58  -2.43
iter:  13 10:43:54 -4594.176605c -4.56  -2.65
iter:  14 10:44:53 -4594.150033c -4.80  -2.69
iter:  15 10:45:47 -4594.132515c -4.63  -2.78
iter:  16 10:46:45 -4594.132553c -5.70  -2.80
iter:  17 10:47:44 -4594.141748c -4.38  -2.88
iter:  18 10:48:44 -4594.146684c -5.48  -2.75
iter:  19 10:49:40 -4594.108183c -5.25  -2.89
iter:  20 10:50:41 -4594.107634c -5.55  -2.98
iter:  21 10:51:42 -4594.107149c -6.53  -3.00
iter:  22 10:52:42 -4594.109560c -5.02  -3.03
iter:  23 10:53:48 -4594.114042c -5.60  -3.20
iter:  24 10:54:41 -4594.125150c -5.47  -3.48
iter:  25 10:56:06 -4594.117039c -6.42  -3.49
iter:  26 10:57:29 -4594.118031c -6.89  -3.67
iter:  27 10:58:49 -4594.117489c -6.17  -3.69
iter:  28 10:59:45 -4594.121656c -5.93  -3.62
iter:  29 11:00:41 -4594.116582c -6.65  -3.78
iter:  30 11:01:38 -4594.117547c -7.19  -3.94
iter:  31 11:02:47 -4594.118797c -7.24  -4.03c
iter:  32 11:04:01 -4594.118470c -7.41c -4.11c

Converged after 32 iterations.

Dipole moment: (-12.892119, -16.029086, 0.002654) |e|*Ang

Energy contributions relative to reference atoms: (reference = -2606927.690960)

Kinetic:       +487.500360
Potential:     -522.289165
External:        +0.000000
XC:            -4557.735621
Entropy (-ST):   -1.336467
Local:           -0.925810
--------------------------
Free energy:   -4594.786703
Extrapolated:  -4594.118470

Showing only first 2 kpts
 Kpt  Band  Eigenvalues  Occupancy
  0   344     -1.14684    1.68337
  0   345     -1.13698    1.65620
  0   346     -1.11322    1.58321
  0   347     -1.06417    1.39864

  1   344     -1.12832    1.63082
  1   345     -1.10676    1.56147
  1   346     -1.05745    1.37000
  1   347     -1.03347    1.26225


Fermi level: -0.97976

No gap

Forces in eV/Ang:
  0 Cu    0.01508    0.08022    0.01314
  1 Cu    0.01753    0.00377   -0.05721
  2 Cu    0.02809   -0.01882   -0.07412
  3 Cu   -0.00854   -0.00303   -0.09371
  4 Cu   -0.01773    0.02766    0.09099
  5 Cu    0.00405    0.00319    0.09881
  6 Cu    0.01523    0.01760    0.11222
  7 Cu    0.20942   -0.03914   -0.52234
  8 Cu    0.01656    0.12380   -0.10756
  9 Cu   -0.01064    0.01143   -0.03812
 10 Cu   -0.00074   -0.01166    0.12460
[...]
 31 Cu    0.01676    0.01171   -0.00443
 32 Cu   -0.03313   -0.01065    0.02371
 33 Cu    0.01722    0.01206    0.01166
 34 Cu   -0.00367    0.02277    0.00977
 35 Cu    0.01325    0.00219    0.00165
 36 Cu   -0.00042    0.01214   -0.00119
 37 Cu   -0.00828   -0.00377    0.00040
 38 Cu   -0.01409    0.01122   -0.00788
 39 Cu   -0.00243   -0.00697    0.00015
 40 Cu   -0.00264    0.01539   -0.01611
 41 Cu   -0.00373    0.02023   -0.00032
 42 Cu    0.01343   -0.00017   -0.01569
 43 Cu    0.01088    0.01061   -0.02476
 44 Cu    0.00647    0.01396   -0.00765
 45 Cu    0.00937   -0.00156    0.00221
 46 Cu   -0.00331    0.00893   -0.03208
 47 Cu    0.00261    0.00344    0.00642
 48 Cu    0.00408    0.00401    0.00847
 49 Cu    0.00758    0.01434   -0.00297
 50 Cu    0.00541   -0.01216    0.02026
 51 Cu   -0.02189   -0.00926   -0.02636
 52 Cu   -0.00403   -0.00043   -0.00184
 53 Cu   -0.02679   -0.01821   -0.00234
 54 Cl    0.01208    0.01160   -0.01377
 55 Cl    0.00881   -0.06679    0.03216
 56 Cl   -0.02558    0.00008   -0.02881
 57 Cl    0.03645   -0.00692    0.04307
 58 Cl   -0.00454    0.00455    0.02304
 59 Cl    0.01651    0.01037   -0.01816
 60 Cl   -0.03481    0.01917   -0.00456
 61 Cl    0.02293   -0.01658    0.01680
 62 Cl    0.00621    0.00366   -0.01984
 63 Cl   -0.00163   -0.00824    0.02119
 64 Cl   -0.00355    0.00486   -0.01170
 65 Cl   -0.00605   -0.00168    0.03494
 66 Cl   -0.01474   -0.00369   -0.00214
 67 Cl    0.00268    0.06003   -0.02535

System changes: positions 

Initializing position-dependent things.

Density initialized from wave functions
                                       
                                       
                                       
                                       
                                       
                                       
                                       
                       Cll             
                                       
                             Cl        
              Cl                       
                                       
            Cu    Cl     CCl           
          Cl    CCu   CCu    Cu        
                                       
        Cu    CCu    Cu    Cu          
            Cu    CCu    Cu            
                                       
          Cu    CCu   CCu    Cu        
        Cu    CCu   CCu    Cu          
                                       
            Cu    CCu    Cu            
          Cu    Cu    CCu    Cu        
                           Cl          
        Cu    CCu   CCu    Cu          
           CCu     Cu    Cu            
                       Cl              
                                       
        Cl                             
                                       
              Cl                       
                                       
                                       
                                       
                                       
                                       
                                       
                                       

Positions:
   0 Cu     1.851058    1.863587    9.944926    ( 0.0000,  0.0000,  0.0000)
   1 Cu     0.563757    0.517628   11.831091    ( 0.0000,  0.0000,  0.0000)
   2 Cu     3.162674    0.518711   11.818951    ( 0.0000,  0.0000,  0.0000)
   3 Cu     1.882526    1.837825   13.704731    ( 0.0000,  0.0000,  0.0000)
   4 Cu     0.575755    0.528512   15.536325    ( 0.0000,  0.0000,  0.0000)
   5 Cu     3.200102    0.522182   15.543805    ( 0.0000,  0.0000,  0.0000)
   6 Cu     1.888994    1.819371   17.387405    ( 0.0000,  0.0000,  0.0000)
   7 Cu     0.573711    0.527974   19.238306    ( 0.0000,  0.0000,  0.0000)
   8 Cu     3.174938    0.564899   19.342902    ( 0.0000,  0.0000,  0.0000)
   9 Cu     0.591169    3.162185   11.836516    ( 0.0000,  0.0000,  0.0000)
  10 Cu     0.574049    3.144443   15.551854    ( 0.0000,  0.0000,  0.0000)
  11 Cu     0.574724    3.137422   19.215588    ( 0.0000,  0.0000,  0.0000)
  12 Cu     7.072049    1.866326   10.060269    ( 0.0000,  0.0000,  0.0000)
  13 Cu     5.804297    0.527490   11.856488    ( 0.0000,  0.0000,  0.0000)
  14 Cu     7.124439    1.846030   13.685156    ( 0.0000,  0.0000,  0.0000)
  15 Cu     5.811438    0.543532   15.528020    ( 0.0000,  0.0000,  0.0000)
  16 Cu     7.110913    1.821301   17.404660    ( 0.0000,  0.0000,  0.0000)
  17 Cu     5.802834    0.484555   19.321395    ( 0.0000,  0.0000,  0.0000)
  18 Cu     4.454740    1.857357    9.996888    ( 0.0000,  0.0000,  0.0000)
  19 Cu     4.486217    4.433676   10.032163    ( 0.0000,  0.0000,  0.0000)
  20 Cu     3.147652    3.151066   11.814933    ( 0.0000,  0.0000,  0.0000)
  21 Cu     5.785914    3.153344   11.862557    ( 0.0000,  0.0000,  0.0000)
  22 Cu     4.479135    1.841765   13.679904    ( 0.0000,  0.0000,  0.0000)
  23 Cu     4.490916    4.458830   13.693779    ( 0.0000,  0.0000,  0.0000)
  24 Cu     3.203734    3.147518   15.547165    ( 0.0000,  0.0000,  0.0000)
  25 Cu     5.810793    3.140921   15.529247    ( 0.0000,  0.0000,  0.0000)
  26 Cu     4.505378    1.821582   17.406906    ( 0.0000,  0.0000,  0.0000)
  27 Cu     4.544991    4.456332   17.424198    ( 0.0000,  0.0000,  0.0000)
  28 Cu     3.204638    3.171569   19.200437    ( 0.0000,  0.0000,  0.0000)
  29 Cu     5.785889    3.153022   19.305477    ( 0.0000,  0.0000,  0.0000)
  30 Cu     1.907529    4.454944    9.934111    ( 0.0000,  0.0000,  0.0000)
  31 Cu     1.896608    7.124163    9.914315    ( 0.0000,  0.0000,  0.0000)
  32 Cu     0.586897    5.785996   11.833134    ( 0.0000,  0.0000,  0.0000)
  33 Cu     3.190749    5.783465   11.830010    ( 0.0000,  0.0000,  0.0000)
  34 Cu     1.884622    4.463829   13.710508    ( 0.0000,  0.0000,  0.0000)
  35 Cu     1.883136    7.061111   13.710821    ( 0.0000,  0.0000,  0.0000)
  36 Cu     0.568875    5.759596   15.554148    ( 0.0000,  0.0000,  0.0000)
  37 Cu     3.214028    5.765612   15.559669    ( 0.0000,  0.0000,  0.0000)
  38 Cu     1.904358    4.454885   17.375817    ( 0.0000,  0.0000,  0.0000)
  39 Cu     1.887379    7.079281   17.384190    ( 0.0000,  0.0000,  0.0000)
  40 Cu     0.615845    5.739733   19.184768    ( 0.0000,  0.0000,  0.0000)
  41 Cu     3.233127    5.747528   19.241085    ( 0.0000,  0.0000,  0.0000)
  42 Cu     7.118226    4.468331   10.021543    ( 0.0000,  0.0000,  0.0000)
  43 Cu     7.125436    7.078733   10.000351    ( 0.0000,  0.0000,  0.0000)
  44 Cu     5.805826    5.784808   11.850326    ( 0.0000,  0.0000,  0.0000)
  45 Cu     7.120482    4.461875   13.688239    ( 0.0000,  0.0000,  0.0000)
  46 Cu     7.118948    7.076459   13.702752    ( 0.0000,  0.0000,  0.0000)
  47 Cu     5.810806    5.767458   15.533826    ( 0.0000,  0.0000,  0.0000)
  48 Cu     7.099313    4.446378   17.404340    ( 0.0000,  0.0000,  0.0000)
  49 Cu     7.130460    7.088074   17.409324    ( 0.0000,  0.0000,  0.0000)
  50 Cu     5.838418    5.747216   19.295856    ( 0.0000,  0.0000,  0.0000)
  51 Cu     4.524668    7.042918    9.897282    ( 0.0000,  0.0000,  0.0000)
  52 Cu     4.494972    7.082839   13.694638    ( 0.0000,  0.0000,  0.0000)
  53 Cu     4.530964    7.086744   17.420118    ( 0.0000,  0.0000,  0.0000)
  54 Cl     5.881622    4.617108   23.376664    ( 0.0000,  0.0000,  0.0000)
  55 Cl     2.045029    2.994221    5.769271    ( 0.0000,  0.0000,  0.0000)
  56 Cl     1.467757   -0.791900   21.009066    ( 0.0000,  0.0000,  0.0000)
  57 Cl     6.222236    8.398199    8.224541    ( 0.0000,  0.0000,  0.0000)
  58 Cl     1.807951    4.437699   20.871878    ( 0.0000,  0.0000,  0.0000)
  59 Cl     5.878506    3.166082    8.367815    ( 0.0000,  0.0000,  0.0000)
  60 Cl     0.353096    0.887345    8.260644    ( 0.0000,  0.0000,  0.0000)
  61 Cl     7.338856    6.728086   20.984354    ( 0.0000,  0.0000,  0.0000)
  62 Cl     7.216382    1.910782   20.913050    ( 0.0000,  0.0000,  0.0000)
  63 Cl     0.479900    5.689038    8.322713    ( 0.0000,  0.0000,  0.0000)
  64 Cl     3.729514    5.578850    8.168252    ( 0.0000,  0.0000,  0.0000)
  65 Cl     3.970894    2.039074   21.065145    ( 0.0000,  0.0000,  0.0000)
  66 Cl     5.693458    2.917443   24.444106    ( 0.0000,  0.0000,  0.0000)
  67 Cl     1.808799    4.699680    4.724046    ( 0.0000,  0.0000,  0.0000)

Unit cell:
           periodic     x           y           z      points  spacing
  1. axis:    yes    7.851007    0.000000    0.000000    45     0.1655
  2. axis:    yes    2.617002    7.851007    0.000000    48     0.1636
  3. axis:    yes    0.000000    0.000000   30.683867   175     0.1753

  Lengths:   7.851007   8.275688  30.683867
  Angles:   90.000000  90.000000  71.565053

Effective grid spacing dv^(1/3) = 0.1710

     iter     time        total  log10-change:
                         energy  eigst   dens
iter:   1 19:02:00 -4598.901634  -3.05
iter:   2 19:02:56 -4598.878379  -4.09  -2.96
iter:   3 19:03:52 -4598.872084c -4.77  -3.11
iter:   4 19:04:49 -4598.868048c -5.10  -3.21
iter:   5 19:05:45 -4598.865663c -4.66  -3.33
iter:   6 19:06:50 -4598.865161c -5.11  -3.65
iter:   7 19:07:47 -4598.865752c -5.58  -3.81
iter:   8 19:08:52 -4598.864953c -5.70  -3.94
iter:   9 19:09:55 -4598.864840c -6.13  -4.20c
iter:  10 19:10:52 -4598.864845c -6.65  -4.29c
iter:  11 19:12:13 -4598.864831c -6.76  -4.32c
iter:  12 19:13:31 -4598.864820c -7.48c -4.50c

Converged after 12 iterations.

Dipole moment: (-49.121738, -32.944073, -0.009913) |e|*Ang

Energy contributions relative to reference atoms: (reference = -2606927.690960)

Kinetic:       +529.870505
Potential:     -555.416516
External:        +0.000000
XC:            -4572.247311
Entropy (-ST):   -0.547228
Local:           -0.797885
--------------------------
Free energy:   -4599.138434
Extrapolated:  -4598.864820

Showing only first 2 kpts
 Kpt  Band  Eigenvalues  Occupancy
  0   344     -0.21672    1.93945
  0   345     -0.10912    1.83221
  0   346     -0.05672    1.73213
  0   347      0.15633    0.86882

  1   344     -0.01616    1.62336
  1   345      0.05074    1.37651
  1   346      0.09016    1.19629
  1   347      0.29242    0.32908


Fermi level: 0.12994

No gap

Forces in eV/Ang:
  0 Cu   -0.00478   -0.00520   -0.00562
  1 Cu   -0.00119   -0.00311    0.00090
  2 Cu    0.00970    0.00251    0.00256
  3 Cu   -0.00422    0.00221    0.00505
  4 Cu   -0.00569    0.00116    0.00914
  5 Cu   -0.00689    0.00010   -0.00065
  6 Cu   -0.00206    0.00569    0.00217
  7 Cu   -0.00881   -0.00658    0.00116
  8 Cu   -0.00523    0.00101    0.00552
  9 Cu    0.00491    0.00045   -0.00010
 10 Cu   -0.00831   -0.00097   -0.00380
 11 Cu   -0.00679   -0.00500    0.00486
 12 Cu    0.00508   -0.00461   -0.00139
 13 Cu    0.00691   -0.00153   -0.00364
 14 Cu   -0.00228   -0.00473   -0.00515
 15 Cu   -0.00279    0.00100   -0.00373
 16 Cu   -0.00399    0.00301   -0.00299
 17 Cu   -0.01056   -0.00088   -0.00240
 18 Cu    0.00034   -0.01057   -0.00444
 19 Cu    0.00730   -0.00273    0.00005
 20 Cu    0.00237   -0.01041    0.00539
 21 Cu    0.01219   -0.00759    0.01029
 22 Cu   -0.00313   -0.00459    0.00442
 23 Cu    0.00167   -0.00598   -0.00815
 24 Cu   -0.00471    0.00520    0.00370
 25 Cu   -0.00484    0.00195   -0.00791
 26 Cu   -0.00423   -0.00248   -0.00261
 27 Cu   -0.00365    0.00769   -0.00660
 28 Cu   -0.00912    0.01131    0.00088
 29 Cu   -0.01320    0.00646   -0.00712
 30 Cu    0.00770    0.00019    0.00297
 31 Cu    0.00882   -0.00242   -0.00133
 32 Cu   -0.00537   -0.00521    0.00635
 33 Cu    0.00475    0.00558    0.00800
 34 Cu    0.00073    0.00333    0.00736
 35 Cu    0.00373    0.00153    0.00076
 36 Cu    0.00167    0.00706    0.00214
 37 Cu    0.00200   -0.00010   -0.00296
 38 Cu   -0.00965    0.00371   -0.00368
 39 Cu   -0.00154   -0.00175    0.00335
 40 Cu   -0.00147    0.00589   -0.00825
 41 Cu    0.00224    0.01104    0.00505
 42 Cu    0.00493    0.00820   -0.00584
 43 Cu    0.00635    0.00728   -0.00963
 44 Cu    0.00597   -0.00024   -0.00149
 45 Cu    0.00648    0.00035   -0.00177
 46 Cu    0.00340    0.00136   -0.01140
 47 Cu    0.00571    0.00248   -0.00232
 48 Cu    0.00043   -0.00456    0.00244
 49 Cu   -0.00209    0.00323    0.00168
 50 Cu    0.00064   -0.00409    0.00383
 51 Cu    0.00032   -0.00262   -0.01110
 52 Cu    0.00398    0.00093    0.00012
 53 Cu   -0.00863   -0.00027   -0.00003
 54 Cl    0.00189   -0.01733    0.00309
 55 Cl    0.00499   -0.02178    0.01679
 56 Cl   -0.00228   -0.00757   -0.01271
 57 Cl    0.01563    0.00333    0.01124
 58 Cl   -0.00852   -0.00514    0.00085
 59 Cl    0.01026    0.01013   -0.00270
 60 Cl    0.00416    0.01475    0.00556
 61 Cl   -0.00411   -0.01077    0.00264
 62 Cl   -0.00137    0.00165   -0.01153
 63 Cl    0.00570   -0.00755    0.00905
 64 Cl    0.01017    0.00172   -0.00283
 65 Cl   -0.01509   -0.00759    0.00478
 66 Cl   -0.01107   -0.01492    0.00618
 67 Cl    0.00789    0.01137   -0.00414

Timing:                                      incl.     excl.
-------------------------------------------------------------------
Density initialized from wave functions:   613.699   613.694   0.5% |
 Symmetrize density:                         0.005     0.005   0.0% |
Forces:                                   2645.500  2645.500   2.0% ||
Hamiltonian:                               990.709     2.158   0.0% |
 Atomic:                                    52.198    23.789   0.0% |
  XC Correction:                            28.408    28.408   0.0% |
 Calculate atomic Hamiltonians:            246.425   246.425   0.2% |
 Communicate:                                9.106     9.106   0.0% |
 Initialize Hamiltonian:                     0.001     0.001   0.0% |
 Poisson:                                    0.706     0.706   0.0% |
 XC 3D grid:                               680.115    99.470   0.1% |
  VdW-DF integral:                         580.646    23.601   0.0% |
   Convolution:                             36.723    36.723   0.0% |
   FFT:                                     19.894    19.894   0.0% |
   gather:                                 211.091   211.091   0.2% |
   hmm1:                                    12.176    12.176   0.0% |
   hmm2:                                    29.090    29.090   0.0% |
   iFFT:                                    20.519    20.519   0.0% |
   potential:                              222.567     2.743   0.0% |
    collect:                                33.004    33.004   0.0% |
    p1:                                    101.135   101.135   0.1% |
    p2:                                     40.549    40.549   0.0% |
    sum:                                    45.136    45.136   0.0% |
   splines:                                  4.985     4.985   0.0% |
LCAO initialization:                       273.496     0.531   0.0% |
 LCAO eigensolver:                          11.950     0.003   0.0% |
  Blacs Orbital Layouts:                     0.822     0.001   0.0% |
   General diagonalize:                      0.805     0.805   0.0% |
   Redistribute coefs:                       0.010     0.010   0.0% |
   Send coefs to domains:                    0.006     0.006   0.0% |
  Calculate projections:                     0.023     0.023   0.0% |
  Distribute overlap matrix:                10.652     0.001   0.0% |
   Scalapack redistribute:                   0.022     0.022   0.0% |
   blocked summation:                       10.629    10.629   0.0% |
  Potential matrix:                          0.289     0.289   0.0% |
  SparseAtomicCorrection:                    0.027     0.027   0.0% |
  Sum over cells:                            0.134     0.134   0.0% |
 LCAO to grid:                             258.342   258.342   0.2% |
 Set positions (LCAO WFS):                   2.673     0.063   0.0% |
  Basic WFS set positions:                   0.003     0.003   0.0% |
  Basis functions set positions:             0.000     0.000   0.0% |
  P tci:                                     0.098     0.098   0.0% |
  ST tci:                                    0.421     0.421   0.0% |
  Scalapack redistribute:                    0.029     0.029   0.0% |
  blocked summation:                         1.896     1.896   0.0% |
  mktci:                                     0.163     0.163   0.0% |
PWDescriptor:                                0.794     0.794   0.0% |
Redistribute:                                0.775     0.775   0.0% |
SCF-cycle:                               127479.938  4835.862   3.6% ||
 Davidson:                               93101.092 24036.464  18.1% |------|
  Apply H:                                9159.846  8998.018   6.8% |--|
   HMM T:                                  161.827   161.827   0.1% |
  Subspace diag:                         15861.302     0.478   0.0% |
   calc_h_matrix:                        11635.285  2622.445   2.0% ||
    Apply H:                              9012.840  8843.519   6.7% |--|
     HMM T:                                169.321   169.321   0.1% |
   diagonalize:                            511.637   511.637   0.4% |
   rotate_psi:                            3713.902  3713.902   2.8% ||
  calc. matrices:                        34181.200 16490.131  12.4% |----|
   Apply H:                              17691.069 17371.895  13.1% |----|
    HMM T:                                 319.174   319.174   0.2% |
  diagonalize:                            3046.803  3046.803   2.3% ||
  rotate_psi:                             6815.477  6815.477   5.1% |-|
 Density:                                10766.120     0.102   0.0% |
  Atomic density matrices:                  39.484    39.484   0.0% |
  Mix:                                    5472.819  5472.819   4.1% |-|
  Multipole moments:                         2.164     2.164   0.0% |
  Pseudo density:                         5251.551  5251.469   4.0% |-|
   Symmetrize density:                       0.083     0.083   0.0% |
 Hamiltonian:                            18292.817    38.690   0.0% |
  Atomic:                                  853.755   316.409   0.2% |
   XC Correction:                          537.346   537.346   0.4% |
  Calculate atomic Hamiltonians:          4570.677  4570.677   3.4% ||
  Communicate:                             143.145   143.145   0.1% |
  Poisson:                                  12.353    12.353   0.0% |
  XC 3D grid:                            12674.198  1813.550   1.4% ||
   VdW-DF integral:                      10860.647   422.643   0.3% |
    Convolution:                           660.768   660.768   0.5% |
    FFT:                                   356.135   356.135   0.3% |
    gather:                               4243.959  4243.959   3.2% ||
    hmm1:                                  214.956   214.956   0.2% |
    hmm2:                                  513.854   513.854   0.4% |
    iFFT:                                  371.379   371.379   0.3% |
    potential:                            4076.930    49.429   0.0% |
     collect:                              612.208   612.208   0.5% |
     p1:                                  1871.583  1871.583   1.4% ||
     p2:                                   727.208   727.208   0.5% |
     sum:                                  816.502   816.502   0.6% |
    splines:                                 0.024     0.024   0.0% |
 Orthonormalize:                           484.047     0.044   0.0% |
  calc_s_matrix:                            65.077    65.077   0.0% |
  inverse-cholesky:                         16.813    16.813   0.0% |
  projections:                             304.484   304.484   0.2% |
  rotate_psi_s:                             97.630    97.630   0.1% |
Set symmetry:                                0.001     0.001   0.0% |
Other:                                     802.506   802.506   0.6% |
-------------------------------------------------------------------
Total:                                             132807.418 100.0%

Memory usage: 1.38 GiB
Date: Mon Oct 10 19:13:55 2022
