
  ___ ___ ___ _ _ _  
 |   |   |_  | | | | 
 | | | | | . | | | | 
 |__ |  _|___|_____|  22.1.0
 |___|_|             

User:   thorkong@node429.cluster
Date:   Sat Nov 26 03:15:43 2022
Arch:   x86_64
Pid:    30508
Python: 3.10.5
gpaw:   /groups/kemi/thorkong/miniconda3/envs/gpaw22/lib/python3.10/site-packages/gpaw
_gpaw:  /groups/kemi/thorkong/miniconda3/envs/gpaw22/lib/python3.10/site-packages/
        _gpaw.cpython-310-x86_64-linux-gnu.so
ase:    /groups/kemi/thorkong/miniconda3/envs/gpaw22/lib/python3.10/site-packages/ase (version 3.22.1)
numpy:  /groups/kemi/thorkong/miniconda3/envs/gpaw22/lib/python3.10/site-packages/numpy (version 1.23.0)
scipy:  /groups/kemi/thorkong/miniconda3/envs/gpaw22/lib/python3.10/site-packages/scipy (version 1.8.1)
libxc:  5.2.3
units:  Angstrom and eV
cores: 32
OpenMP: True
OMP_NUM_THREADS: 1

Input parameters:
  basis: dzp
  kpts: [4 4 1]
  mode: {ecut: 600.0,
         name: pw}
  xc: BEEF-vdW

System changes: positions, numbers, cell, pbc, initial_charges, initial_magmoms 

Initialize ...

Cu-setup:
  name: Copper
  id: f1c4d45d90492f1bbfdcb091e8418fdf
  Z: 29.0
  valence: 11
  core: 18
  charge: 0.0
  file: /groups/kemi/thorkong/miniconda3/envs/gpaw22/share/gpaw/Cu.PBE.gz
  compensation charges: gauss, rc=0.33, lmax=2
  cutoffs: 2.06(filt), 2.43(core),
  valence states:
                energy  radius
    4s(1.00)    -4.609   1.164
    4p(0.00)    -0.698   1.164
    3d(10.00)    -5.039   1.058
    *s          22.603   1.164
    *p          26.513   1.164
    *d          22.172   1.058

  LCAO basis set for Cu:
    Name: dzp
    File: /groups/kemi/thorkong/miniconda3/envs/gpaw22/share/gpaw/Cu.dzp.basis.gz
    Number of radial functions: 5
    Number of spherical harmonics: 15
      l=0, rc=8.9688 Bohr: 4s-sz confined orbital
      l=2, rc=5.1719 Bohr: 3d-sz confined orbital
      l=0, rc=5.3281 Bohr: 4s-dz split-valence wave
      l=2, rc=3.1406 Bohr: 3d-dz split-valence wave
      l=1, rc=8.9688 Bohr: p-type Gaussian polarization

Cl-setup:
  name: Chlorine
  id: 726897f06f34e53cf8e33b5885a02604
  Z: 17.0
  valence: 7
  core: 10
  charge: 0.0
  file: /groups/kemi/thorkong/miniconda3/envs/gpaw22/share/gpaw/Cl.PBE.gz
  compensation charges: gauss, rc=0.25, lmax=2
  cutoffs: 1.40(filt), 1.49(core),
  valence states:
                energy  radius
    3s(2.00)   -20.689   0.794
    3p(5.00)    -8.594   0.794
    *s           6.523   0.794
    *p          18.617   0.794
    *d           0.000   0.794

  LCAO basis set for Cl:
    Name: dzp
    File: /groups/kemi/thorkong/miniconda3/envs/gpaw22/share/gpaw/Cl.dzp.basis.gz
    Number of radial functions: 5
    Number of spherical harmonics: 13
      l=0, rc=5.1719 Bohr: 3s-sz confined orbital
      l=1, rc=6.2656 Bohr: 3p-sz confined orbital
      l=0, rc=2.8281 Bohr: 3s-dz split-valence wave
      l=1, rc=3.5156 Bohr: 3p-dz split-valence wave
      l=2, rc=6.2656 Bohr: d-type Gaussian polarization

Reference energy: -4548048.465870

Spin-paired calculation

Convergence criteria:
 Maximum [total energy] change in last 3 cyles: 0.0005 eV / electron
 Maximum integral of absolute [dens]ity change: 0.0001 electrons / valence electron
 Maximum integral of absolute [eigenst]ate change: 4e-08 eV^2 / valence electron
 Maximum number of scf [iter]ations: 333
 (Square brackets indicate name in SCF output, whereas a 'c' in
 the SCF output indicates the quantity has converged.)

Symmetries present (total): 1

  ( 1  0  0)
  ( 0  1  0)
  ( 0  0  1)

16 k-points: 4 x 4 x 1 Monkhorst-Pack grid
8 k-points in the irreducible part of the Brillouin zone
       k-points in crystal coordinates                weights
   0:     0.12500000   -0.37500000    0.00000000          2/16
   1:     0.12500000   -0.12500000    0.00000000          2/16
   2:     0.12500000    0.12500000    0.00000000          2/16
   3:     0.12500000    0.37500000    0.00000000          2/16
   4:     0.37500000   -0.37500000    0.00000000          2/16
   5:     0.37500000   -0.12500000    0.00000000          2/16
   6:     0.37500000    0.12500000    0.00000000          2/16
   7:     0.37500000    0.37500000    0.00000000          2/16

Wave functions: Plane wave expansion
  Cutoff energy: 600.000 eV
  Number of coefficients (min, max): 96699, 96750
  Pulay-stress correction: 0.000000 eV/Ang^3 (de/decut=0.000000)
  Using FFTW library
  ScaLapack parameters: grid=2x2, blocksize=64
  Wavefunction extrapolation:
    Improved wavefunction reuse through dual PAW basis 

Occupation numbers: Fermi-Dirac: width=0.1000 eV
 

Eigensolver
   Davidson(niter=2) 

Densities:
  Coarse grid: 70*42*192 grid
  Fine grid: 140*84*384 grid
  Total Charge: 0.000000 

Density mixing:
  Method: separate
  Backend: pulay
  Linear mixing parameter: 0.05
  Mixing with 5 old densities
  Damping of long wave oscillations: 50 

Hamiltonian:
  XC and Coulomb potentials evaluated on a 140*84*384 grid
  Using the BEEF-vdW Exchange-Correlation functional
  External potential:
    NoExternalPotential
 

XC parameters: BEEF-vdW with 2 nearest neighbor stencil

Memory estimate:
  Process memory now: 346.70 MiB
  Calculator: 2314.49 MiB
    Density: 70.86 MiB
      Arrays: 27.99 MiB
      Localized functions: 32.10 MiB
      Mixer: 10.77 MiB
    Hamiltonian: 19.09 MiB
      Arrays: 18.30 MiB
      XC: 0.00 MiB
      Poisson: 0.00 MiB
      vbar: 0.78 MiB
    Wavefunctions: 2224.54 MiB
      Arrays psit_nG: 1054.07 MiB
      Eigensolver: 1139.26 MiB
      Projections: 5.34 MiB
      Projectors: 3.69 MiB
      PW-descriptor: 22.18 MiB

Total number of cores used: 32
Parallelization over k-points: 8
Domain decomposition: 1 x 1 x 4
                      2 x 2 x 8 (xc only)

Number of atoms: 114
Number of atomic orbitals: 1674
Number of bands in calculation: 714
Number of valence electrons: 1182
Bands to converge: occupied

... initialized

Initializing position-dependent things.

Density initialized from atomic densities
Creating initial wave functions:
  714 bands from LCAO basis set

      .----------------------------.  
     /|                            |  
    / |                            |  
   /  |                            |  
  /   |                            |  
 *    |                            |  
 |    |                            |  
 |    |                            |  
 |    |                Cl          |  
 |    |                            |  
 |    |               Cl           |  
 |    |          Cl            Cl  |  
 |    | Cl                         |  
 |    |       Cl    Cu       Cl    |  
 |    |       Cu            Cu     |  
 |   Cl Cu       Cu Cl Cu       Cu |  
 |    |    Cu    Cu       Cu    Cu |  
 |    |     Cu      Cu    Cu       |  
 |    Cu   Cu       Cu    Cu  Cu   |  
 |   Cu       Cu    Cu       Cu    |  
 |    |  Cu   Cu       Cu    Cu    |  
 | Cu |  Cu   Cu  Cu   Cu   CCu    |  
 | Cu | Cu  Cu   Cu    Cu Cu       |  
 |    |     Cu   Cu       Cu   CCu |  
 |    Cu   Cu    Cu Cu    Cu   Cu  |  
 |    Cu   Cu  Cu   Cu    Cu Cu    |  
 |   Cu        Cu   Cu       Cu    |  
 |    |  Cu   Cu       Cu    Cu    |  
 | Cu |  Cu   Cu  Cu   Cu    Cu    |  
 | Cu | Cu  Cu    Cu   Cu          |  
 |    |     Cu   Cu       Cu    CuCl  
 |    Cu    Cu       Cu   Cu       |  
 |    Cu    Cl Cu   Cu   Cl  Cu Cl |  
 |    |          Cl                |  
 |    |  Cu            CCu         |  
 |    |            Cl              |  
 |    |                            |  
 |    |                            |  
 |    |        Cl                  |  
 |    |                            |  
 |    |                            |  
 |    .----------------------------.  
 |   /                            /   
 |  /                            /    
 | /                            /     
 |/                            /      
 *----------------------------*       

Positions:
   0 Cu     3.316806    0.033741   10.027850    ( 0.0000,  0.0000,  0.0000)
   1 Cu     1.321178    1.864668   10.553350    ( 0.0000,  0.0000,  0.0000)
   2 Cu     7.219023    1.862378   10.464490    ( 0.0000,  0.0000,  0.0000)
   3 Cu     9.127176    0.016814   10.011246    ( 0.0000,  0.0000,  0.0000)
   4 Cu    11.308937    0.008416   11.402887    ( 0.0000,  0.0000,  0.0000)
   5 Cu     9.572340    1.853325   11.850082    ( 0.0000,  0.0000,  0.0000)
   6 Cu     3.750773    1.845853   11.752293    ( 0.0000,  0.0000,  0.0000)
   7 Cu     5.557250    0.009370   11.228822    ( 0.0000,  0.0000,  0.0000)
   8 Cu     7.872965    0.035832   12.364157    ( 0.0000,  0.0000,  0.0000)
   9 Cu     6.157909    1.865419   12.895650    ( 0.0000,  0.0000,  0.0000)
  10 Cu     0.258230    1.866545   13.022116    ( 0.0000,  0.0000,  0.0000)
  11 Cu     2.001998    0.010497   12.339686    ( 0.0000,  0.0000,  0.0000)
  12 Cu     4.360039    0.030319   13.471403    ( 0.0000,  0.0000,  0.0000)
  13 Cu     2.600146    1.873010   14.088287    ( 0.0000,  0.0000,  0.0000)
  14 Cu     8.431675    1.845863   14.193468    ( 0.0000,  0.0000,  0.0000)
  15 Cu    10.169402   -0.004454   13.624450    ( 0.0000,  0.0000,  0.0000)
  16 Cu     0.824869    0.001544   14.721454    ( 0.0000,  0.0000,  0.0000)
  17 Cu    10.760812    1.844376   15.357406    ( 0.0000,  0.0000,  0.0000)
  18 Cu     4.961993    1.862160   15.222012    ( 0.0000,  0.0000,  0.0000)
  19 Cu     6.695999    0.004581   14.708168    ( 0.0000,  0.0000,  0.0000)
  20 Cu     9.020675   -0.012882   15.937439    ( 0.0000,  0.0000,  0.0000)
  21 Cu     7.276633    1.850884   16.496824    ( 0.0000,  0.0000,  0.0000)
  22 Cu     1.435913    1.854607   16.424949    ( 0.0000,  0.0000,  0.0000)
  23 Cu     3.195972    0.002935   15.788434    ( 0.0000,  0.0000,  0.0000)
  24 Cu     5.525725    0.001070   16.996162    ( 0.0000,  0.0000,  0.0000)
  25 Cu     3.796254    1.856007   17.530116    ( 0.0000,  0.0000,  0.0000)
  26 Cu     9.594547    1.851897   17.696373    ( 0.0000,  0.0000,  0.0000)
  27 Cu    11.368282    0.005690   17.064635    ( 0.0000,  0.0000,  0.0000)
  28 Cu     2.039265    0.002429   18.121506    ( 0.0000,  0.0000,  0.0000)
  29 Cu     0.270169    1.857548   18.764391    ( 0.0000,  0.0000,  0.0000)
  30 Cu     6.104743    1.856621   18.788767    ( 0.0000,  0.0000,  0.0000)
  31 Cu     7.851097    0.005746   18.262663    ( 0.0000,  0.0000,  0.0000)
  32 Cu    10.212813    0.015706   19.410422    ( 0.0000,  0.0000,  0.0000)
  33 Cu     8.436707    1.845859   20.041908    ( 0.0000,  0.0000,  0.0000)
  34 Cu     2.649458    1.857513   19.837074    ( 0.0000,  0.0000,  0.0000)
  35 Cu     4.383623    0.008933   19.299386    ( 0.0000,  0.0000,  0.0000)
  36 Cu     6.663649    0.012659   20.573870    ( 0.0000,  0.0000,  0.0000)
  37 Cu     4.921375    1.869836   21.146539    ( 0.0000,  0.0000,  0.0000)
  38 Cu    10.772272    1.854933   21.177020    ( 0.0000,  0.0000,  0.0000)
  39 Cu     0.848154    0.010813   20.453552    ( 0.0000,  0.0000,  0.0000)
  40 Cu     3.220224    0.014175   21.593930    ( 0.0000,  0.0000,  0.0000)
  41 Cu     1.483068    1.869996   22.060661    ( 0.0000,  0.0000,  0.0000)
  42 Cu     7.282836    1.812852   22.282920    ( 0.0000,  0.0000,  0.0000)
  43 Cu     9.058580   -0.018611   21.766101    ( 0.0000,  0.0000,  0.0000)
  44 Cu    11.509611    0.012633   22.929227    ( 0.0000,  0.0000,  0.0000)
  45 Cu     9.501224    1.904632   23.565110    ( 0.0000,  0.0000,  0.0000)
  46 Cu     3.616928    1.886364   23.492738    ( 0.0000,  0.0000,  0.0000)
  47 Cu     5.511515   -0.012887   22.850668    ( 0.0000,  0.0000,  0.0000)
  48 Cu     3.291789    3.660072    9.930964    ( 0.0000,  0.0000,  0.0000)
  49 Cu     1.339410    5.558160   10.514278    ( 0.0000,  0.0000,  0.0000)
  50 Cu     7.269893    5.570132   10.689286    ( 0.0000,  0.0000,  0.0000)
  51 Cu     9.191441    3.641237    9.947948    ( 0.0000,  0.0000,  0.0000)
  52 Cu    11.327594    3.696380   11.382335    ( 0.0000,  0.0000,  0.0000)
  53 Cu     9.588996    5.542382   11.871888    ( 0.0000,  0.0000,  0.0000)
  54 Cu     3.780191    5.571332   11.749790    ( 0.0000,  0.0000,  0.0000)
  55 Cu     5.519944    3.717541   11.233206    ( 0.0000,  0.0000,  0.0000)
  56 Cu     7.894543    3.668754   12.336656    ( 0.0000,  0.0000,  0.0000)
  57 Cu     6.134555    5.542357   12.939213    ( 0.0000,  0.0000,  0.0000)
  58 Cu     0.269414    5.547340   12.993054    ( 0.0000,  0.0000,  0.0000)
  59 Cu     2.029904    3.725046   12.308103    ( 0.0000,  0.0000,  0.0000)
  60 Cu     4.367105    3.698571   13.469041    ( 0.0000,  0.0000,  0.0000)
  61 Cu     2.599924    5.562036   14.077428    ( 0.0000,  0.0000,  0.0000)
  62 Cu     8.430258    5.543239   14.168341    ( 0.0000,  0.0000,  0.0000)
  63 Cu    10.176204    3.690250   13.624184    ( 0.0000,  0.0000,  0.0000)
  64 Cu     0.836473    3.713394   14.726515    ( 0.0000,  0.0000,  0.0000)
  65 Cu    10.770250    5.546524   15.347722    ( 0.0000,  0.0000,  0.0000)
  66 Cu     4.949453    5.557085   15.229271    ( 0.0000,  0.0000,  0.0000)
  67 Cu     6.704805    3.698533   14.707082    ( 0.0000,  0.0000,  0.0000)
  68 Cu     9.018224    3.706663   15.932176    ( 0.0000,  0.0000,  0.0000)
  69 Cu     7.279494    5.552696   16.482220    ( 0.0000,  0.0000,  0.0000)
  70 Cu     1.435990    5.554406   16.415549    ( 0.0000,  0.0000,  0.0000)
  71 Cu     3.204582    3.715015   15.791441    ( 0.0000,  0.0000,  0.0000)
  72 Cu     5.539406    3.710623   16.998300    ( 0.0000,  0.0000,  0.0000)
  73 Cu     3.793259    5.559076   17.551344    ( 0.0000,  0.0000,  0.0000)
  74 Cu     9.610111    5.554059   17.707109    ( 0.0000,  0.0000,  0.0000)
  75 Cu    11.371473    3.695594   17.063519    ( 0.0000,  0.0000,  0.0000)
  76 Cu     2.054044    3.708718   18.122677    ( 0.0000,  0.0000,  0.0000)
  77 Cu     0.280146    5.554702   18.746699    ( 0.0000,  0.0000,  0.0000)
  78 Cu     6.121572    5.556237   18.788512    ( 0.0000,  0.0000,  0.0000)
  79 Cu     7.854873    3.697703   18.277275    ( 0.0000,  0.0000,  0.0000)
  80 Cu    10.205252    3.687662   19.404507    ( 0.0000,  0.0000,  0.0000)
  81 Cu     8.448873    5.553626   20.021943    ( 0.0000,  0.0000,  0.0000)
  82 Cu     2.652216    5.561608   19.847304    ( 0.0000,  0.0000,  0.0000)
  83 Cu     4.393814    3.705250   19.291061    ( 0.0000,  0.0000,  0.0000)
  84 Cu     6.657348    3.691483   20.613561    ( 0.0000,  0.0000,  0.0000)
  85 Cu     4.945136    5.531890   21.141515    ( 0.0000,  0.0000,  0.0000)
  86 Cu    10.800641    5.548764   21.139267    ( 0.0000,  0.0000,  0.0000)
  87 Cu     0.851652    3.706766   20.440152    ( 0.0000,  0.0000,  0.0000)
  88 Cu     3.227583    3.706013   21.597259    ( 0.0000,  0.0000,  0.0000)
  89 Cu     1.492517    5.553046   22.048459    ( 0.0000,  0.0000,  0.0000)
  90 Cu     7.256521    5.565252   22.270697    ( 0.0000,  0.0000,  0.0000)
  91 Cu     9.035697    3.722358   21.741775    ( 0.0000,  0.0000,  0.0000)
  92 Cu    11.490562    3.695136   22.912129    ( 0.0000,  0.0000,  0.0000)
  93 Cu     9.498016    5.515947   23.480578    ( 0.0000,  0.0000,  0.0000)
  94 Cu     3.651852    5.551757   23.452099    ( 0.0000,  0.0000,  0.0000)
  95 Cu     5.568154    3.700322   23.002617    ( 0.0000,  0.0000,  0.0000)
  96 Cl    10.174394    3.758896   24.913206    ( 0.0000,  0.0000,  0.0000)
  97 Cl     7.188904    4.932881   26.584490    ( 0.0000,  0.0000,  0.0000)
  98 Cl     4.233606    3.750717   24.929649    ( 0.0000,  0.0000,  0.0000)
  99 Cl     4.380758   -0.002511   24.832642    ( 0.0000,  0.0000,  0.0000)
 100 Cl     7.150769    2.124246   24.516025    ( 0.0000,  0.0000,  0.0000)
 101 Cl    10.039238   -0.051078   24.838201    ( 0.0000,  0.0000,  0.0000)
 102 Cl    12.999304    5.592848   24.292031    ( 0.0000,  0.0000,  0.0000)
 103 Cl    12.991487    1.821532   24.323644    ( 0.0000,  0.0000,  0.0000)
 104 Cl     5.611081    3.383390    8.994158    ( 0.0000,  0.0000,  0.0000)
 105 Cl     5.527034    0.569923    6.401326    ( 0.0000,  0.0000,  0.0000)
 106 Cl     2.657844    1.774776    8.573325    ( 0.0000,  0.0000,  0.0000)
 107 Cl     2.841535    5.620484    8.623517    ( 0.0000,  0.0000,  0.0000)
 108 Cl    -0.214825   -0.061221    9.167730    ( 0.0000,  0.0000,  0.0000)
 109 Cl    -0.190191    3.757050    9.127779    ( 0.0000,  0.0000,  0.0000)
 110 Cl    -3.172358    1.774410    8.505864    ( 0.0000,  0.0000,  0.0000)
 111 Cl    -3.398127    5.544848    8.674039    ( 0.0000,  0.0000,  0.0000)
 112 Cl     7.199234   -0.509740   27.109938    ( 0.0000,  0.0000,  0.0000)
 113 Cl     5.680433    6.003971    5.889454    ( 0.0000,  0.0000,  0.0000)

Unit cell:
           periodic     x           y           z      points  spacing
  1. axis:    yes   11.703590    0.000000    0.000000    70     0.1672
  2. axis:    yes    0.000000    7.402000    0.000000    42     0.1762
  3. axis:    no     0.000000    0.000000   33.459128   192     0.1743

  Lengths:  11.703590   7.402000  33.459128
  Angles:   90.000000  90.000000  90.000000

Effective grid spacing dv^(1/3) = 0.1725

     iter     time        total  log10-change:
                         energy  eigst   dens
iter:   1 03:40:26 -9235.743629
iter:   2 03:44:50 -12175.218053  +2.00  -0.60
iter:   3 03:49:15 -8126.813366  +2.03  -0.42
iter:   4 03:53:40 -9322.245762  +1.07  -1.07
iter:   5 03:58:06 -8025.257625  -0.33  -0.67
iter:   6 04:02:31 -7987.648429  -0.99  -1.34
iter:   7 04:06:56 -7970.747764  -1.98  -1.38
iter:   8 04:11:22 -7937.352623  -1.32  -1.45
iter:   9 04:15:49 -7934.514832  -1.97  -1.61
iter:  10 04:20:18 -7939.650738  -2.07  -1.64
iter:  11 04:24:50 -7947.479298  -1.33  -1.65
iter:  12 04:29:22 -7938.050631  -2.63  -1.77
iter:  13 04:33:53 -7936.229390  -2.76  -1.85
iter:  14 04:38:25 -7931.287222  -1.82  -1.98
iter:  15 04:42:58 -7930.025917  -2.35  -2.17
iter:  16 04:47:29 -7930.553960  -3.08  -2.38
iter:  17 04:52:36 -7929.787549  -3.21  -2.33
iter:  18 04:57:13 -7929.689177  -3.51  -2.51
iter:  19 05:01:51 -7929.682625c -3.25  -2.62
iter:  20 05:06:33 -7929.700351c -3.71  -2.71
iter:  21 05:11:15 -7929.602648c -3.56  -2.87
iter:  22 05:15:54 -7929.591517c -4.38  -3.16
iter:  23 05:20:33 -7929.593619c -4.94  -3.23
iter:  24 05:25:08 -7929.594232c -4.77  -3.23
iter:  25 05:29:50 -7929.590397c -5.12  -3.31
iter:  26 05:34:30 -7929.586838c -5.39  -3.44
iter:  27 05:39:17 -7929.585870c -5.80  -3.54
iter:  28 05:44:11 -7929.585298c -5.64  -3.63
iter:  29 05:49:03 -7929.585319c -5.98  -3.79
iter:  30 05:53:55 -7929.585350c -5.99  -3.93
iter:  31 05:58:37 -7929.585123c -6.62  -3.97
iter:  32 06:03:14 -7929.584953c -6.57  -4.06c
iter:  33 06:07:51 -7929.584906c -6.23  -4.22c
iter:  34 06:12:24 -7929.584898c -7.26  -4.49c
iter:  35 06:16:46 -7929.584867c -7.45c -4.56c

Converged after 35 iterations.

Dipole moment: (53.405433, 4.513274, 0.007853) |e|*Ang

Energy contributions relative to reference atoms: (reference = -4548048.465870)

Kinetic:       +855.764098
Potential:     -914.913317
External:        +0.000000
XC:            -7868.766067
Entropy (-ST):   -0.920284
Local:           -1.209439
--------------------------
Free energy:   -7930.045009
Extrapolated:  -7929.584867

Showing only first 2 kpts
 Kpt  Band  Eigenvalues  Occupancy
  0   589      0.58320    0.93155
  0   590      0.62613    0.72413
  0   591      0.68267    0.48764
  0   592      0.75115    0.27967

  1   589      0.17962    1.96027
  1   590      0.33051    1.83209
  1   591      0.37875    1.74145
  1   592      0.45946    1.50064


Fermi level: 0.56949

No gap

Forces in eV/Ang:
  0 Cu   -0.03042   -0.00730   -0.01652
  1 Cu    0.02133    0.00005   -0.00180
  2 Cu    0.05070    0.01593    0.07258
  3 Cu   -0.01288   -0.05449   -0.02530
  4 Cu    0.04134    0.01032    0.02661
  5 Cu    0.03044   -0.00872    0.01341
  6 Cu    0.00997   -0.00165    0.04276
  7 Cu   -0.02423   -0.02181    0.06697
  8 Cu    0.01110   -0.03656   -0.10624
  9 Cu   -0.05168   -0.01656    0.02980
 10 Cu    0.02893   -0.03881   -0.08489
 11 Cu    0.05409   -0.02489   -0.03550
 12 Cu   -0.00574   -0.07927    0.06832
 13 Cu   -0.02557   -0.03282    0.03235
 14 Cu   -0.00792    0.01574   -0.03745
 15 Cu    0.01802    0.02406   -0.07409
 16 Cu    0.04674    0.01386   -0.02251
 17 Cu    0.04526    0.03428   -0.04415
 18 Cu   -0.00636   -0.02632    0.00056
 19 Cu    0.01540   -0.00488   -0.02974
 20 Cu   -0.01124    0.02991   -0.02820
 21 Cu   -0.00361    0.00174   -0.01503
 22 Cu   -0.00166    0.00892   -0.01335
 23 Cu    0.02771    0.02297    0.01387
 24 Cu    0.05126    0.01579    0.04843
 25 Cu    0.00079   -0.00844    0.07879
 26 Cu    0.01467   -0.00331   -0.02747
 27 Cu   -0.01529   -0.01444   -0.02667
 28 Cu    0.01303    0.02371    0.05329
 29 Cu   -0.02325   -0.02102   -0.00373
 30 Cu    0.02074    0.00637    0.02233
 31 Cu    0.00048   -0.03469   -0.01534
 32 Cu   -0.04902   -0.03753   -0.03155
 33 Cu   -0.00524    0.00049   -0.06453
 34 Cu   -0.03083    0.00783    0.10517
 35 Cu    0.03746   -0.03417    0.05235
 36 Cu    0.01455   -0.00866   -0.01459
 37 Cu    0.00051   -0.00557   -0.01380
 38 Cu   -0.01465   -0.00342    0.02268
 39 Cu   -0.04864   -0.01152    0.05653
 40 Cu   -0.03070   -0.01072    0.03117
 41 Cu    0.01277   -0.02095    0.03054
 42 Cu   -0.02398    0.01316   -0.07301
 43 Cu   -0.00705    0.01363   -0.01527
 44 Cu   -0.03874    0.00952    0.02161
 45 Cu    0.00114   -0.03316   -0.06166
 46 Cu    0.03197   -0.03820    0.01576
 47 Cu    0.04388    0.00939    0.03609
 48 Cu    0.03232    0.03891    0.05263
 49 Cu   -0.00944   -0.02621    0.03182
 50 Cu   -0.00670   -0.01884   -0.09371
 51 Cu   -0.09055    0.09568   -0.01165
 52 Cu   -0.01243    0.00360    0.02446
 53 Cu    0.02063   -0.00092   -0.02035
 54 Cu   -0.07157    0.02625   -0.04967
 55 Cu    0.01514    0.04125    0.01354
 56 Cu   -0.02018    0.07020    0.02460
 57 Cu    0.02021    0.01656   -0.00338
 58 Cu    0.00414    0.01817    0.02126
 59 Cu    0.03176   -0.04692   -0.03184
 60 Cu   -0.00810    0.03983    0.03551
 61 Cu    0.03002   -0.01993    0.02813
 62 Cu   -0.03221    0.04266   -0.02344
 63 Cu    0.01183    0.03048   -0.10858
 64 Cu    0.01482   -0.03504   -0.04878
 65 Cu    0.00035    0.01429   -0.02449
 66 Cu    0.02344    0.02067    0.00787
 67 Cu    0.00565   -0.00614   -0.05110
 68 Cu   -0.00055   -0.00505    0.01549
 69 Cu   -0.00872   -0.00669   -0.00652
 70 Cu    0.02180    0.01451    0.03716
 71 Cu    0.02224   -0.02318    0.02225
 72 Cu    0.00158   -0.00957   -0.00900
 73 Cu    0.01182   -0.00162    0.00222
 74 Cu   -0.02328   -0.01366   -0.06598
 75 Cu   -0.01527    0.02474   -0.01764
 76 Cu   -0.04733   -0.01193    0.03462
 77 Cu   -0.05808    0.00109    0.05960
 78 Cu   -0.02517   -0.01175    0.01535
 79 Cu   -0.02275    0.02725   -0.01775
 80 Cu   -0.00763    0.03711   -0.02593
 81 Cu    0.00016    0.01352   -0.06015
 82 Cu   -0.01836   -0.01990    0.06104
 83 Cu   -0.00406    0.01422    0.05905
 84 Cu    0.03845    0.01057   -0.07053
 85 Cu   -0.04190    0.00688    0.03484
 86 Cu   -0.04100    0.02619    0.03034
 87 Cu   -0.04412   -0.01061    0.09379
 88 Cu    0.03747   -0.00836    0.06299
 89 Cu   -0.02194   -0.00699    0.04725
 90 Cu    0.00254    0.00607   -0.01675
 91 Cu    0.02385   -0.02364   -0.02598
 92 Cu   -0.00839    0.00505    0.02677
 93 Cu    0.05430    0.00660   -0.00759
 94 Cu    0.01003   -0.02456    0.03457
 95 Cu   -0.01504   -0.01707   -0.08657
 96 Cl    0.00277    0.01182   -0.00594
 97 Cl    0.01062    0.26867    0.06721
 98 Cl    0.00568   -0.03404   -0.05569
 99 Cl    0.03023   -0.00307    0.08432
100 Cl    0.05932    0.04165   -0.00623
101 Cl   -0.06245    0.03551    0.03560
102 Cl    0.00952    0.02248    0.12295
103 Cl   -0.00374   -0.01208    0.08374
104 Cl    0.01964   -0.05719   -0.00655
105 Cl    0.03663   -0.41758   -0.07860
106 Cl   -0.05741    0.00388   -0.02248
107 Cl    0.02654   -0.05188   -0.07250
108 Cl    0.00604   -0.01817   -0.18103
109 Cl   -0.00612   -0.01731   -0.16298
110 Cl   -0.04637    0.06974    0.06094
111 Cl    0.05481    0.02492   -0.14508
112 Cl    0.00510   -0.21767    0.11407
113 Cl   -0.03804    0.39145    0.05659

System changes: positions 

Initializing position-dependent things.

Density initialized from wave functions
      .----------------------------.  
     /|                            |  
    / |                            |  
   /  |                            |  
  /   |                            |  
 *    |                            |  
 |    |                            |  
 |    |                            |  
 |    |                Cl          |  
 |    |                            |  
 |    |               Cl           |  
 |    |          Cl            Cl  |  
 |    | Cl                         |  
 |    |       Cl    Cu       Cl    |  
 |    |       Cu            Cu     |  
 |   Cl Cu       Cu Cl Cu       Cu |  
 |    |    Cu    Cu       Cu    Cu |  
 |    |     Cu      Cu    Cu       |  
 |    Cu   Cu       Cu    Cu  Cu   |  
 |   Cu       Cu    Cu       Cu    |  
 |    |  Cu   Cu       Cu    Cu    |  
 | Cu |  Cu   Cu  Cu   Cu   CCu    |  
 | Cu | Cu  Cu   Cu    Cu Cu       |  
 |    |     Cu   Cu       Cu   CCu |  
 |    Cu   Cu    Cu Cu    Cu   Cu  |  
 |    Cu   Cu  Cu   Cu    Cu Cu    |  
 |   Cu        Cu   Cu       Cu    |  
 |    |  Cu   Cu       Cu    Cu    |  
 | Cu |  Cu   Cu  Cu   Cu    Cu    |  
 | Cu | Cu  Cu    Cu   Cu          |  
 |    |     Cu   Cu       Cu    CuCl  
 |    Cu    Cu       Cu   Cu       |  
 |    Cu    Cl Cu   Cu   Cl  Cu Cl |  
 |    |          Cl                |  
 |    |  Cu            CCu         |  
 |    |            Cl              |  
 |    |                            |  
 |    |                            |  
 |    |        Cl                  |  
 |    |                            |  
 |    |                            |  
 |    .----------------------------.  
 |   /                            /   
 |  /                            /    
 | /                            /     
 |/                            /      
 *----------------------------*       

Positions:
   0 Cu     3.313764    0.033011   10.026198    ( 0.0000,  0.0000,  0.0000)
   1 Cu     1.323311    1.864673   10.553170    ( 0.0000,  0.0000,  0.0000)
   2 Cu     7.224093    1.863971   10.471748    ( 0.0000,  0.0000,  0.0000)
   3 Cu     9.125888    0.011365   10.008716    ( 0.0000,  0.0000,  0.0000)
   4 Cu    11.313071    0.009448   11.405548    ( 0.0000,  0.0000,  0.0000)
   5 Cu     9.575384    1.852453   11.851423    ( 0.0000,  0.0000,  0.0000)
   6 Cu     3.751770    1.845688   11.756569    ( 0.0000,  0.0000,  0.0000)
   7 Cu     5.554827    0.007189   11.235519    ( 0.0000,  0.0000,  0.0000)
   8 Cu     7.874075    0.032176   12.353533    ( 0.0000,  0.0000,  0.0000)
   9 Cu     6.152741    1.863763   12.898630    ( 0.0000,  0.0000,  0.0000)
  10 Cu     0.261123    1.862664   13.013627    ( 0.0000,  0.0000,  0.0000)
  11 Cu     2.007407    0.008008   12.336136    ( 0.0000,  0.0000,  0.0000)
  12 Cu     4.359465    0.022392   13.478235    ( 0.0000,  0.0000,  0.0000)
  13 Cu     2.597589    1.869728   14.091522    ( 0.0000,  0.0000,  0.0000)
  14 Cu     8.430883    1.847437   14.189723    ( 0.0000,  0.0000,  0.0000)
  15 Cu    10.171204   -0.002048   13.617041    ( 0.0000,  0.0000,  0.0000)
  16 Cu     0.829543    0.002930   14.719203    ( 0.0000,  0.0000,  0.0000)
  17 Cu    10.765338    1.847804   15.352991    ( 0.0000,  0.0000,  0.0000)
  18 Cu     4.961357    1.859528   15.222068    ( 0.0000,  0.0000,  0.0000)
  19 Cu     6.697539    0.004093   14.705194    ( 0.0000,  0.0000,  0.0000)
  20 Cu     9.019551   -0.009891   15.934619    ( 0.0000,  0.0000,  0.0000)
  21 Cu     7.276272    1.851058   16.495321    ( 0.0000,  0.0000,  0.0000)
  22 Cu     1.435747    1.855499   16.423614    ( 0.0000,  0.0000,  0.0000)
  23 Cu     3.198743    0.005232   15.789821    ( 0.0000,  0.0000,  0.0000)
  24 Cu     5.530851    0.002649   17.001005    ( 0.0000,  0.0000,  0.0000)
  25 Cu     3.796333    1.855163   17.537995    ( 0.0000,  0.0000,  0.0000)
  26 Cu     9.596014    1.851566   17.693626    ( 0.0000,  0.0000,  0.0000)
  27 Cu    11.366753    0.004246   17.061968    ( 0.0000,  0.0000,  0.0000)
  28 Cu     2.040568    0.004800   18.126835    ( 0.0000,  0.0000,  0.0000)
  29 Cu     0.267844    1.855446   18.764018    ( 0.0000,  0.0000,  0.0000)
  30 Cu     6.106817    1.857258   18.791000    ( 0.0000,  0.0000,  0.0000)
  31 Cu     7.851145    0.002277   18.261129    ( 0.0000,  0.0000,  0.0000)
  32 Cu    10.207911    0.011953   19.407267    ( 0.0000,  0.0000,  0.0000)
  33 Cu     8.436183    1.845908   20.035455    ( 0.0000,  0.0000,  0.0000)
  34 Cu     2.646375    1.858296   19.847591    ( 0.0000,  0.0000,  0.0000)
  35 Cu     4.387369    0.005516   19.304621    ( 0.0000,  0.0000,  0.0000)
  36 Cu     6.665104    0.011793   20.572411    ( 0.0000,  0.0000,  0.0000)
  37 Cu     4.921426    1.869279   21.145159    ( 0.0000,  0.0000,  0.0000)
  38 Cu    10.770807    1.854591   21.179288    ( 0.0000,  0.0000,  0.0000)
  39 Cu     0.843290    0.009661   20.459205    ( 0.0000,  0.0000,  0.0000)
  40 Cu     3.217154    0.013103   21.597047    ( 0.0000,  0.0000,  0.0000)
  41 Cu     1.484345    1.867901   22.063715    ( 0.0000,  0.0000,  0.0000)
  42 Cu     7.280438    1.814168   22.275619    ( 0.0000,  0.0000,  0.0000)
  43 Cu     9.057875   -0.017248   21.764574    ( 0.0000,  0.0000,  0.0000)
  44 Cu    11.505737    0.013585   22.931388    ( 0.0000,  0.0000,  0.0000)
  45 Cu     9.501338    1.901316   23.558944    ( 0.0000,  0.0000,  0.0000)
  46 Cu     3.620125    1.882544   23.494314    ( 0.0000,  0.0000,  0.0000)
  47 Cu     5.515903   -0.011948   22.854277    ( 0.0000,  0.0000,  0.0000)
  48 Cu     3.295021    3.663963    9.936227    ( 0.0000,  0.0000,  0.0000)
  49 Cu     1.338466    5.555539   10.517460    ( 0.0000,  0.0000,  0.0000)
  50 Cu     7.269223    5.568248   10.679915    ( 0.0000,  0.0000,  0.0000)
  51 Cu     9.182386    3.650805    9.946783    ( 0.0000,  0.0000,  0.0000)
  52 Cu    11.326351    3.696740   11.384781    ( 0.0000,  0.0000,  0.0000)
  53 Cu     9.591059    5.542290   11.869853    ( 0.0000,  0.0000,  0.0000)
  54 Cu     3.773034    5.573957   11.744823    ( 0.0000,  0.0000,  0.0000)
  55 Cu     5.521458    3.721666   11.234560    ( 0.0000,  0.0000,  0.0000)
  56 Cu     7.892525    3.675774   12.339116    ( 0.0000,  0.0000,  0.0000)
  57 Cu     6.136576    5.544013   12.938875    ( 0.0000,  0.0000,  0.0000)
  58 Cu     0.269828    5.549157   12.995180    ( 0.0000,  0.0000,  0.0000)
  59 Cu     2.033080    3.720354   12.304919    ( 0.0000,  0.0000,  0.0000)
  60 Cu     4.366295    3.702554   13.472592    ( 0.0000,  0.0000,  0.0000)
  61 Cu     2.602926    5.560043   14.080241    ( 0.0000,  0.0000,  0.0000)
  62 Cu     8.427037    5.547505   14.165997    ( 0.0000,  0.0000,  0.0000)
  63 Cu    10.177387    3.693298   13.613326    ( 0.0000,  0.0000,  0.0000)
  64 Cu     0.837955    3.709890   14.721637    ( 0.0000,  0.0000,  0.0000)
  65 Cu    10.770285    5.547953   15.345273    ( 0.0000,  0.0000,  0.0000)
  66 Cu     4.951797    5.559152   15.230058    ( 0.0000,  0.0000,  0.0000)
  67 Cu     6.705370    3.697919   14.701972    ( 0.0000,  0.0000,  0.0000)
  68 Cu     9.018169    3.706158   15.933725    ( 0.0000,  0.0000,  0.0000)
  69 Cu     7.278622    5.552027   16.481568    ( 0.0000,  0.0000,  0.0000)
  70 Cu     1.438170    5.555857   16.419265    ( 0.0000,  0.0000,  0.0000)
  71 Cu     3.206806    3.712697   15.793666    ( 0.0000,  0.0000,  0.0000)
  72 Cu     5.539564    3.709666   16.997400    ( 0.0000,  0.0000,  0.0000)
  73 Cu     3.794441    5.558914   17.551566    ( 0.0000,  0.0000,  0.0000)
  74 Cu     9.607783    5.552693   17.700511    ( 0.0000,  0.0000,  0.0000)
  75 Cu    11.369946    3.698068   17.061755    ( 0.0000,  0.0000,  0.0000)
  76 Cu     2.049311    3.707525   18.126139    ( 0.0000,  0.0000,  0.0000)
  77 Cu     0.274338    5.554811   18.752659    ( 0.0000,  0.0000,  0.0000)
  78 Cu     6.119055    5.555062   18.790047    ( 0.0000,  0.0000,  0.0000)
  79 Cu     7.852598    3.700428   18.275500    ( 0.0000,  0.0000,  0.0000)
  80 Cu    10.204489    3.691373   19.401914    ( 0.0000,  0.0000,  0.0000)
  81 Cu     8.448889    5.554978   20.015928    ( 0.0000,  0.0000,  0.0000)
  82 Cu     2.650380    5.559618   19.853408    ( 0.0000,  0.0000,  0.0000)
  83 Cu     4.393408    3.706672   19.296966    ( 0.0000,  0.0000,  0.0000)
  84 Cu     6.661193    3.692540   20.606508    ( 0.0000,  0.0000,  0.0000)
  85 Cu     4.940946    5.532578   21.144999    ( 0.0000,  0.0000,  0.0000)
  86 Cu    10.796541    5.551383   21.142301    ( 0.0000,  0.0000,  0.0000)
  87 Cu     0.847240    3.705705   20.449531    ( 0.0000,  0.0000,  0.0000)
  88 Cu     3.231330    3.705177   21.603558    ( 0.0000,  0.0000,  0.0000)
  89 Cu     1.490323    5.552347   22.053184    ( 0.0000,  0.0000,  0.0000)
  90 Cu     7.256775    5.565859   22.269022    ( 0.0000,  0.0000,  0.0000)
  91 Cu     9.038082    3.719994   21.739177    ( 0.0000,  0.0000,  0.0000)
  92 Cu    11.489723    3.695641   22.914806    ( 0.0000,  0.0000,  0.0000)
  93 Cu     9.503446    5.516607   23.479819    ( 0.0000,  0.0000,  0.0000)
  94 Cu     3.652855    5.549301   23.455556    ( 0.0000,  0.0000,  0.0000)
  95 Cu     5.566650    3.698615   22.993960    ( 0.0000,  0.0000,  0.0000)
  96 Cl    10.174671    3.760078   24.912612    ( 0.0000,  0.0000,  0.0000)
  97 Cl     7.189966    4.959748   26.591211    ( 0.0000,  0.0000,  0.0000)
  98 Cl     4.234174    3.747313   24.924080    ( 0.0000,  0.0000,  0.0000)
  99 Cl     4.383781   -0.002818   24.841074    ( 0.0000,  0.0000,  0.0000)
 100 Cl     7.156701    2.128411   24.515402    ( 0.0000,  0.0000,  0.0000)
 101 Cl    10.032993   -0.047527   24.841761    ( 0.0000,  0.0000,  0.0000)
 102 Cl    13.000256    5.595096   24.304326    ( 0.0000,  0.0000,  0.0000)
 103 Cl    12.991113    1.820324   24.332018    ( 0.0000,  0.0000,  0.0000)
 104 Cl     5.613045    3.377671    8.993503    ( 0.0000,  0.0000,  0.0000)
 105 Cl     5.530697    0.528165    6.393466    ( 0.0000,  0.0000,  0.0000)
 106 Cl     2.652103    1.775164    8.571077    ( 0.0000,  0.0000,  0.0000)
 107 Cl     2.844189    5.615296    8.616267    ( 0.0000,  0.0000,  0.0000)
 108 Cl    -0.214221   -0.063038    9.149627    ( 0.0000,  0.0000,  0.0000)
 109 Cl    -0.190803    3.755319    9.111481    ( 0.0000,  0.0000,  0.0000)
 110 Cl    -3.176995    1.781384    8.511958    ( 0.0000,  0.0000,  0.0000)
 111 Cl    -3.392646    5.547340    8.659531    ( 0.0000,  0.0000,  0.0000)
 112 Cl     7.199744   -0.531507   27.121345    ( 0.0000,  0.0000,  0.0000)
 113 Cl     5.676629    6.043116    5.895113    ( 0.0000,  0.0000,  0.0000)

Unit cell:
           periodic     x           y           z      points  spacing
  1. axis:    yes   11.703590    0.000000    0.000000    70     0.1672
  2. axis:    yes    0.000000    7.402000    0.000000    42     0.1762
  3. axis:    no     0.000000    0.000000   33.459128   192     0.1743

  Lengths:  11.703590   7.402000  33.459128
  Angles:   90.000000  90.000000  90.000000

Effective grid spacing dv^(1/3) = 0.1725

     iter     time        total  log10-change:
                         energy  eigst   dens
iter:   1 06:23:52 -7929.948554  -2.83
iter:   2 06:28:11 -7929.799535  -3.43  -2.64
iter:   3 06:32:31 -7929.761280c -3.94  -2.75
iter:   4 06:36:50 -7929.667599c -4.21  -2.77
iter:   5 06:41:08 -7929.605618c -3.76  -2.96
iter:   6 06:45:27 -7929.596638c -4.50  -3.34
iter:   7 06:49:46 -7929.594315c -5.11  -3.49
iter:   8 06:54:07 -7929.594087c -5.29  -3.64
iter:   9 06:58:28 -7929.593485c -5.76  -3.80
iter:  10 07:02:49 -7929.592886c -6.01  -3.88
iter:  11 07:07:11 -7929.592947c -6.44  -3.98
iter:  12 07:11:34 -7929.592489c -6.32  -3.94
iter:  13 07:15:56 -7929.592500c -6.55  -4.21c
iter:  14 07:20:18 -7929.592451c -7.25  -4.37c
iter:  15 07:24:41 -7929.592488c -6.49  -4.44c
iter:  16 07:29:02 -7929.592512c -7.23  -4.61c
iter:  17 07:33:22 -7929.592467c -7.58c -4.57c

Converged after 17 iterations.

Dipole moment: (53.606280, 3.753835, 0.023525) |e|*Ang

Energy contributions relative to reference atoms: (reference = -4548048.465870)

Kinetic:       +856.750769
Potential:     -915.239729
External:        +0.000000
XC:            -7869.452802
Entropy (-ST):   -0.921816
Local:           -1.189796
--------------------------
Free energy:   -7930.053375
Extrapolated:  -7929.592467

Showing only first 2 kpts
 Kpt  Band  Eigenvalues  Occupancy
  0   589      0.57759    0.93051
  0   590      0.62049    0.72331
  0   591      0.67628    0.48977
  0   592      0.74667    0.27648

  1   589      0.17356    1.96036
  1   590      0.32489    1.83179
  1   591      0.37303    1.74122
  1   592      0.45523    1.49466


Fermi level: 0.56367

No gap

Forces in eV/Ang:
  0 Cu   -0.03207   -0.00443   -0.04148
  1 Cu    0.00629    0.00222   -0.02916
  2 Cu    0.02534    0.00934    0.07532
  3 Cu    0.02649   -0.04000   -0.03876
  4 Cu    0.04080   -0.00814   -0.14276
  5 Cu    0.00837    0.00760   -0.02199
  6 Cu    0.01774   -0.00992    0.02920
  7 Cu   -0.02558   -0.01446    0.03109
  8 Cu    0.00539   -0.01342   -0.07285
  9 Cu   -0.02667   -0.01043    0.01228
 10 Cu    0.03346   -0.01765   -0.05384
 11 Cu    0.03829   -0.01814   -0.02658
 12 Cu   -0.00834   -0.04893    0.03983
 13 Cu   -0.00168   -0.02003    0.01115
 14 Cu    0.00132    0.01093   -0.03840
 15 Cu    0.00037    0.01574   -0.02412
 16 Cu    0.03015    0.00183   -0.01394
 17 Cu    0.02374    0.02272   -0.04922
 18 Cu   -0.00375   -0.01551    0.01426
 19 Cu    0.01268    0.00607   -0.01873
 20 Cu   -0.00021    0.02677   -0.03703
 21 Cu   -0.00106    0.00558   -0.01482
 22 Cu    0.00128    0.00330    0.01215
 23 Cu    0.01899    0.01125    0.04128
 24 Cu    0.02835    0.01155    0.02897
 25 Cu   -0.00109   -0.00282    0.06847
 26 Cu    0.00820    0.00026   -0.02680
 27 Cu    0.00027   -0.00938   -0.02154
 28 Cu    0.00129    0.01044    0.05007
 29 Cu   -0.01843   -0.01111    0.00578
 30 Cu    0.01114    0.00457    0.00871
 31 Cu   -0.00101   -0.01615   -0.02292
 32 Cu   -0.02767   -0.01674   -0.02597
 33 Cu    0.01119    0.00025   -0.05281
 34 Cu   -0.02072    0.00421    0.05793
 35 Cu    0.00846   -0.01844    0.04245
 36 Cu    0.01067   -0.01457   -0.00611
 37 Cu    0.00301   -0.01760   -0.00555
 38 Cu   -0.01067   -0.00594    0.00392
 39 Cu   -0.04426   -0.00680    0.03971
 40 Cu   -0.01582   -0.01236    0.04428
 41 Cu   -0.00499   -0.01512    0.08939
 42 Cu   -0.01244    0.02013   -0.02430
 43 Cu   -0.01540    0.00860   -0.01326
 44 Cu   -0.02801    0.00864    0.04039
 45 Cu   -0.00684   -0.01880   -0.04537
 46 Cu    0.02074   -0.05021    0.01800
 47 Cu    0.02344    0.00845    0.04816
 48 Cu    0.02244    0.01828    0.01845
 49 Cu   -0.02051   -0.02381   -0.01545
 50 Cu   -0.00062   -0.01430   -0.10927
 51 Cu   -0.03576    0.08658   -0.00630
 52 Cu    0.00677    0.00766   -0.12279
 53 Cu    0.01662    0.00979   -0.04205
 54 Cu   -0.03698    0.00552   -0.02935
 55 Cu    0.00793    0.02717    0.00129
 56 Cu   -0.01146    0.03463    0.00585
 57 Cu    0.00233    0.01190   -0.02065
 58 Cu    0.02145    0.00676    0.00752
 59 Cu    0.01500   -0.02611   -0.01653
 60 Cu   -0.00681    0.02657    0.01643
 61 Cu    0.01032   -0.02153    0.02307
 62 Cu   -0.00021    0.02791   -0.01365
 63 Cu   -0.00570    0.01962   -0.03381
 64 Cu    0.01276   -0.00983   -0.03213
 65 Cu    0.00336    0.00857   -0.03501
 66 Cu    0.02429    0.00762    0.02384
 67 Cu   -0.00111   -0.00308   -0.02202
 68 Cu    0.00206   -0.00438   -0.02700
 69 Cu   -0.00999   -0.00566   -0.01420
 70 Cu    0.00839    0.00526    0.02796
 71 Cu    0.01021   -0.01841    0.03173
 72 Cu   -0.00351   -0.01256   -0.00400
 73 Cu    0.00007   -0.00210    0.01744
 74 Cu   -0.01255   -0.00441   -0.05865
 75 Cu    0.00076    0.01845   -0.01691
 76 Cu   -0.03351   -0.00786    0.04193
 77 Cu   -0.03188    0.00305    0.03865
 78 Cu   -0.01941   -0.01046    0.00690
 79 Cu   -0.01039    0.01148   -0.02724
 80 Cu   -0.00508    0.01688   -0.02058
 81 Cu   -0.00052    0.00342   -0.03143
 82 Cu   -0.02450   -0.01595    0.03352
 83 Cu   -0.01345    0.00492    0.03252
 84 Cu    0.02428    0.01969   -0.04144
 85 Cu   -0.01211    0.01216    0.03236
 86 Cu   -0.02981    0.01527    0.03043
 87 Cu   -0.03800   -0.00936    0.06355
 88 Cu    0.00324   -0.00788    0.06021
 89 Cu   -0.02404   -0.00519    0.09945
 90 Cu    0.01464   -0.00459   -0.01616
 91 Cu    0.00986   -0.00706   -0.02109
 92 Cu   -0.00104   -0.00102    0.03501
 93 Cu    0.03766    0.01123   -0.00729
 94 Cu   -0.00070    0.00377    0.03933
 95 Cu    0.00198   -0.01687   -0.06594
 96 Cl   -0.00578    0.00305   -0.00661
 97 Cl    0.00498   -0.51721   -0.14647
 98 Cl    0.02201   -0.03382   -0.03190
 99 Cl    0.04291   -0.00914    0.05067
100 Cl    0.05441    0.03235   -0.05258
101 Cl   -0.05676    0.02233    0.03161
102 Cl    0.01360    0.02417    0.06354
103 Cl    0.00243   -0.01235    0.04119
104 Cl   -0.00263   -0.04411    0.03586
105 Cl   -0.08304    1.08974    0.32397
106 Cl   -0.02979    0.00906    0.01132
107 Cl    0.02176   -0.03160   -0.02644
108 Cl   -0.02189   -0.01795   -0.01911
109 Cl   -0.03364   -0.01602   -0.01397
110 Cl   -0.02232    0.04535    0.06018
111 Cl    0.03051    0.03023   -0.09992
112 Cl    0.00927    0.57177    0.33197
113 Cl    0.07624   -1.11577   -0.33667

System changes: positions 

Initializing position-dependent things.

Density initialized from wave functions
      .----------------------------.  
     /|                            |  
    / |                            |  
   /  |                            |  
  /   |                            |  
 *    |                            |  
 |    |                            |  
 |    |                            |  
 |    |                Cl          |  
 |    |                            |  
 |    |               Cl           |  
 |    |          Cl            Cl  |  
 |    | Cl                         |  
 |    |       Cl    Cu       Cl    |  
 |    |       Cu            Cu     |  
 |   Cl Cu       Cu Cl Cu       Cu |  
 |    |    Cu    Cu       Cu    Cu |  
 |    |     Cu      Cu    Cu       |  
 |    Cu   Cu       Cu    Cu  Cu   |  
 |   Cu       Cu    Cu       Cu    |  
 |    |  Cu   Cu       Cu    Cu    |  
 | Cu |  Cu   Cu  Cu   Cu   CCu    |  
 | Cu | Cu  Cu   Cu    Cu Cu       |  
 |    |     Cu   Cu       Cu   CCu |  
 |    Cu   Cu    Cu Cu    Cu   Cu  |  
 |    Cu   Cu  Cu   Cu    Cu Cu    |  
 |   Cu        Cu   Cu       Cu    |  
 |    |  Cu   Cu       Cu    Cu    |  
 | Cu |  Cu   Cu  Cu   Cu    Cu    |  
 | Cu | Cu  Cu    Cu   Cu          |  
 |    |     Cu   Cu       Cu    CuCl  
 |    Cu    Cu       Cu   Cu       |  
 |    Cu    Cl Cu   Cu   Cl  Cu Cl |  
 |    |          Cl                |  
 |    |  Cu            CCu         |  
 |    |            Cl              |  
 |    |                            |  
 |    |                            |  
 |    |        Cl                  |  
 |    |                            |  
 |    |                            |  
 |    .----------------------------.  
 |   /                            /   
 |  /                            /    
 | /                            /     
 |/                            /      
 *----------------------------*       

Positions:
   0 Cu     3.315212    0.033359   10.026984    ( 0.0000,  0.0000,  0.0000)
   1 Cu     1.322296    1.864670   10.553256    ( 0.0000,  0.0000,  0.0000)
   2 Cu     7.221680    1.863213   10.468294    ( 0.0000,  0.0000,  0.0000)
   3 Cu     9.126501    0.013958   10.009920    ( 0.0000,  0.0000,  0.0000)
   4 Cu    11.311104    0.008957   11.404282    ( 0.0000,  0.0000,  0.0000)
   5 Cu     9.573936    1.852868   11.850785    ( 0.0000,  0.0000,  0.0000)
   6 Cu     3.751296    1.845767   11.754534    ( 0.0000,  0.0000,  0.0000)
   7 Cu     5.555980    0.008227   11.232332    ( 0.0000,  0.0000,  0.0000)
   8 Cu     7.873547    0.033916   12.358589    ( 0.0000,  0.0000,  0.0000)
   9 Cu     6.155200    1.864551   12.897212    ( 0.0000,  0.0000,  0.0000)
  10 Cu     0.259746    1.864511   13.017667    ( 0.0000,  0.0000,  0.0000)
  11 Cu     2.004833    0.009192   12.337825    ( 0.0000,  0.0000,  0.0000)
  12 Cu     4.359738    0.026164   13.474984    ( 0.0000,  0.0000,  0.0000)
  13 Cu     2.598806    1.871290   14.089983    ( 0.0000,  0.0000,  0.0000)
  14 Cu     8.431260    1.846688   14.191505    ( 0.0000,  0.0000,  0.0000)
  15 Cu    10.170346   -0.003193   13.620567    ( 0.0000,  0.0000,  0.0000)
  16 Cu     0.827318    0.002271   14.720274    ( 0.0000,  0.0000,  0.0000)
  17 Cu    10.763184    1.846173   15.355092    ( 0.0000,  0.0000,  0.0000)
  18 Cu     4.961660    1.860781   15.222041    ( 0.0000,  0.0000,  0.0000)
  19 Cu     6.696806    0.004325   14.706609    ( 0.0000,  0.0000,  0.0000)
  20 Cu     9.020086   -0.011314   15.935961    ( 0.0000,  0.0000,  0.0000)
  21 Cu     7.276444    1.850975   16.496036    ( 0.0000,  0.0000,  0.0000)
  22 Cu     1.435826    1.855075   16.424249    ( 0.0000,  0.0000,  0.0000)
  23 Cu     3.197424    0.004139   15.789161    ( 0.0000,  0.0000,  0.0000)
  24 Cu     5.528412    0.001898   16.998700    ( 0.0000,  0.0000,  0.0000)
  25 Cu     3.796296    1.855565   17.534246    ( 0.0000,  0.0000,  0.0000)
  26 Cu     9.595316    1.851724   17.694933    ( 0.0000,  0.0000,  0.0000)
  27 Cu    11.367481    0.004933   17.063237    ( 0.0000,  0.0000,  0.0000)
  28 Cu     2.039948    0.003672   18.124299    ( 0.0000,  0.0000,  0.0000)
  29 Cu     0.268950    1.856446   18.764195    ( 0.0000,  0.0000,  0.0000)
  30 Cu     6.105830    1.856955   18.789937    ( 0.0000,  0.0000,  0.0000)
  31 Cu     7.851122    0.003928   18.261859    ( 0.0000,  0.0000,  0.0000)
  32 Cu    10.210244    0.013739   19.408768    ( 0.0000,  0.0000,  0.0000)
  33 Cu     8.436432    1.845885   20.038526    ( 0.0000,  0.0000,  0.0000)
  34 Cu     2.647842    1.857924   19.842586    ( 0.0000,  0.0000,  0.0000)
  35 Cu     4.385587    0.007142   19.302130    ( 0.0000,  0.0000,  0.0000)
  36 Cu     6.664412    0.012205   20.573105    ( 0.0000,  0.0000,  0.0000)
  37 Cu     4.921402    1.869544   21.145816    ( 0.0000,  0.0000,  0.0000)
  38 Cu    10.771504    1.854754   21.178209    ( 0.0000,  0.0000,  0.0000)
  39 Cu     0.845605    0.010209   20.456515    ( 0.0000,  0.0000,  0.0000)
  40 Cu     3.218615    0.013613   21.595563    ( 0.0000,  0.0000,  0.0000)
  41 Cu     1.483737    1.868898   22.062262    ( 0.0000,  0.0000,  0.0000)
  42 Cu     7.281579    1.813542   22.279093    ( 0.0000,  0.0000,  0.0000)
  43 Cu     9.058211   -0.017897   21.765301    ( 0.0000,  0.0000,  0.0000)
  44 Cu    11.507580    0.013132   22.930359    ( 0.0000,  0.0000,  0.0000)
  45 Cu     9.501284    1.902894   23.561879    ( 0.0000,  0.0000,  0.0000)
  46 Cu     3.618604    1.884362   23.493564    ( 0.0000,  0.0000,  0.0000)
  47 Cu     5.513815   -0.012395   22.852559    ( 0.0000,  0.0000,  0.0000)
  48 Cu     3.293483    3.662111    9.933722    ( 0.0000,  0.0000,  0.0000)
  49 Cu     1.338915    5.556786   10.515946    ( 0.0000,  0.0000,  0.0000)
  50 Cu     7.269542    5.569144   10.684374    ( 0.0000,  0.0000,  0.0000)
  51 Cu     9.186695    3.646252    9.947337    ( 0.0000,  0.0000,  0.0000)
  52 Cu    11.326943    3.696569   11.383617    ( 0.0000,  0.0000,  0.0000)
  53 Cu     9.590077    5.542334   11.870822    ( 0.0000,  0.0000,  0.0000)
  54 Cu     3.776440    5.572708   11.747187    ( 0.0000,  0.0000,  0.0000)
  55 Cu     5.520738    3.719703   11.233916    ( 0.0000,  0.0000,  0.0000)
  56 Cu     7.893486    3.672433   12.337945    ( 0.0000,  0.0000,  0.0000)
  57 Cu     6.135614    5.543225   12.939036    ( 0.0000,  0.0000,  0.0000)
  58 Cu     0.269631    5.548292   12.994168    ( 0.0000,  0.0000,  0.0000)
  59 Cu     2.031569    3.722587   12.306434    ( 0.0000,  0.0000,  0.0000)
  60 Cu     4.366680    3.700658   13.470902    ( 0.0000,  0.0000,  0.0000)
  61 Cu     2.601498    5.560991   14.078902    ( 0.0000,  0.0000,  0.0000)
  62 Cu     8.428570    5.545475   14.167113    ( 0.0000,  0.0000,  0.0000)
  63 Cu    10.176824    3.691847   13.618493    ( 0.0000,  0.0000,  0.0000)
  64 Cu     0.837249    3.711558   14.723958    ( 0.0000,  0.0000,  0.0000)
  65 Cu    10.770268    5.547273   15.346439    ( 0.0000,  0.0000,  0.0000)
  66 Cu     4.950682    5.558168   15.229684    ( 0.0000,  0.0000,  0.0000)
  67 Cu     6.705101    3.698211   14.704404    ( 0.0000,  0.0000,  0.0000)
  68 Cu     9.018195    3.706398   15.932988    ( 0.0000,  0.0000,  0.0000)
  69 Cu     7.279037    5.552346   16.481878    ( 0.0000,  0.0000,  0.0000)
  70 Cu     1.437133    5.555166   16.417497    ( 0.0000,  0.0000,  0.0000)
  71 Cu     3.205748    3.713800   15.792607    ( 0.0000,  0.0000,  0.0000)
  72 Cu     5.539489    3.710122   16.997828    ( 0.0000,  0.0000,  0.0000)
  73 Cu     3.793879    5.558991   17.551460    ( 0.0000,  0.0000,  0.0000)
  74 Cu     9.608891    5.553343   17.703651    ( 0.0000,  0.0000,  0.0000)
  75 Cu    11.370673    3.696890   17.062594    ( 0.0000,  0.0000,  0.0000)
  76 Cu     2.051564    3.708093   18.124491    ( 0.0000,  0.0000,  0.0000)
  77 Cu     0.277102    5.554759   18.749822    ( 0.0000,  0.0000,  0.0000)
  78 Cu     6.120253    5.555621   18.789317    ( 0.0000,  0.0000,  0.0000)
  79 Cu     7.853681    3.699131   18.276345    ( 0.0000,  0.0000,  0.0000)
  80 Cu    10.204852    3.689607   19.403148    ( 0.0000,  0.0000,  0.0000)
  81 Cu     8.448881    5.554334   20.018790    ( 0.0000,  0.0000,  0.0000)
  82 Cu     2.651254    5.560565   19.850503    ( 0.0000,  0.0000,  0.0000)
  83 Cu     4.393601    3.705996   19.294156    ( 0.0000,  0.0000,  0.0000)
  84 Cu     6.659363    3.692037   20.609864    ( 0.0000,  0.0000,  0.0000)
  85 Cu     4.942940    5.532251   21.143341    ( 0.0000,  0.0000,  0.0000)
  86 Cu    10.798492    5.550137   21.140857    ( 0.0000,  0.0000,  0.0000)
  87 Cu     0.849340    3.706210   20.445068    ( 0.0000,  0.0000,  0.0000)
  88 Cu     3.229547    3.705575   21.600561    ( 0.0000,  0.0000,  0.0000)
  89 Cu     1.491367    5.552680   22.050935    ( 0.0000,  0.0000,  0.0000)
  90 Cu     7.256654    5.565570   22.269819    ( 0.0000,  0.0000,  0.0000)
  91 Cu     9.036947    3.721119   21.740413    ( 0.0000,  0.0000,  0.0000)
  92 Cu    11.490122    3.695401   22.913532    ( 0.0000,  0.0000,  0.0000)
  93 Cu     9.500862    5.516293   23.480180    ( 0.0000,  0.0000,  0.0000)
  94 Cu     3.652378    5.550470   23.453911    ( 0.0000,  0.0000,  0.0000)
  95 Cu     5.567366    3.699428   22.998080    ( 0.0000,  0.0000,  0.0000)
  96 Cl    10.174539    3.759516   24.912895    ( 0.0000,  0.0000,  0.0000)
  97 Cl     7.189461    4.946962   26.588013    ( 0.0000,  0.0000,  0.0000)
  98 Cl     4.233904    3.748933   24.926730    ( 0.0000,  0.0000,  0.0000)
  99 Cl     4.382342   -0.002672   24.837062    ( 0.0000,  0.0000,  0.0000)
 100 Cl     7.153878    2.126429   24.515699    ( 0.0000,  0.0000,  0.0000)
 101 Cl    10.035965   -0.049217   24.840067    ( 0.0000,  0.0000,  0.0000)
 102 Cl    12.999803    5.594026   24.298475    ( 0.0000,  0.0000,  0.0000)
 103 Cl    12.991291    1.820899   24.328033    ( 0.0000,  0.0000,  0.0000)
 104 Cl     5.612111    3.380393    8.993814    ( 0.0000,  0.0000,  0.0000)
 105 Cl     5.528954    0.548037    6.397207    ( 0.0000,  0.0000,  0.0000)
 106 Cl     2.654835    1.774979    8.572147    ( 0.0000,  0.0000,  0.0000)
 107 Cl     2.842926    5.617765    8.619717    ( 0.0000,  0.0000,  0.0000)
 108 Cl    -0.214508   -0.062173    9.158242    ( 0.0000,  0.0000,  0.0000)
 109 Cl    -0.190512    3.756143    9.119237    ( 0.0000,  0.0000,  0.0000)
 110 Cl    -3.174788    1.778065    8.509058    ( 0.0000,  0.0000,  0.0000)
 111 Cl    -3.395254    5.546154    8.666435    ( 0.0000,  0.0000,  0.0000)
 112 Cl     7.199501   -0.521148   27.115917    ( 0.0000,  0.0000,  0.0000)
 113 Cl     5.678439    6.024487    5.892420    ( 0.0000,  0.0000,  0.0000)

Unit cell:
           periodic     x           y           z      points  spacing
  1. axis:    yes   11.703590    0.000000    0.000000    70     0.1672
  2. axis:    yes    0.000000    7.402000    0.000000    42     0.1762
  3. axis:    no     0.000000    0.000000   33.459128   192     0.1743

  Lengths:  11.703590   7.402000  33.459128
  Angles:   90.000000  90.000000  90.000000

Effective grid spacing dv^(1/3) = 0.1725

     iter     time        total  log10-change:
                         energy  eigst   dens
iter:   1 07:40:19 -7929.719740  -3.42
iter:   2 07:44:38 -7929.689093  -3.94  -2.90
iter:   3 07:48:56 -7929.659303c -4.38  -2.95
iter:   4 07:53:13 -7929.626689c -4.95  -3.06
iter:   5 07:57:30 -7929.616202c -4.30  -3.34
iter:   6 08:01:48 -7929.613443c -5.14  -3.63
iter:   7 08:06:04 -7929.612672c -5.61  -3.81
iter:   8 08:10:21 -7929.612619c -5.65  -3.95
iter:   9 08:14:38 -7929.612341c -6.56  -4.11c
iter:  10 08:18:53 -7929.612269c -6.46  -4.17c
iter:  11 08:23:10 -7929.612199c -6.89  -4.17c
iter:  12 08:27:27 -7929.612215c -6.73  -4.30c
iter:  13 08:31:44 -7929.612219c -7.23  -4.47c
iter:  14 08:36:01 -7929.612161c -7.19  -4.61c
iter:  15 08:40:18 -7929.612140c -7.52c -4.75c

Converged after 15 iterations.

Dipole moment: (53.509009, 4.119705, 0.017113) |e|*Ang

Energy contributions relative to reference atoms: (reference = -4548048.465870)

Kinetic:       +855.235433
Potential:     -914.115918
External:        +0.000000
XC:            -7869.054316
Entropy (-ST):   -0.921048
Local:           -1.216815
--------------------------
Free energy:   -7930.072664
Extrapolated:  -7929.612140

Showing only first 2 kpts
 Kpt  Band  Eigenvalues  Occupancy
  0   589      0.57978    0.93092
  0   590      0.62266    0.72376
  0   591      0.67875    0.48901
  0   592      0.74829    0.27803

  1   589      0.17590    1.96033
  1   590      0.32715    1.83180
  1   591      0.37525    1.74133
  1   592      0.45672    1.49760


Fermi level: 0.56594

No gap

Forces in eV/Ang:
  0 Cu   -0.03130   -0.00569   -0.02696
  1 Cu    0.01442    0.00107   -0.01545
  2 Cu    0.03573    0.01193    0.07494
  3 Cu    0.00663   -0.04572   -0.02926
  4 Cu    0.04069    0.00095   -0.06527
  5 Cu    0.01919   -0.00033   -0.00772
  6 Cu    0.01687   -0.00549    0.03302
  7 Cu   -0.02351   -0.01654    0.04526
  8 Cu    0.00681   -0.02326   -0.08910
  9 Cu   -0.03784   -0.01332    0.01893
 10 Cu    0.02959   -0.02730   -0.07035
 11 Cu    0.04611   -0.02159   -0.03408
 12 Cu   -0.00552   -0.06290    0.05192
 13 Cu   -0.01149   -0.02502    0.02016
 14 Cu   -0.00372    0.01334   -0.03991
 15 Cu    0.00730    0.02005   -0.04704
 16 Cu    0.03739    0.00706   -0.01814
 17 Cu    0.03260    0.02824   -0.04727
 18 Cu   -0.00345   -0.01994    0.00750
 19 Cu    0.01464    0.00161   -0.02462
 20 Cu   -0.00631    0.02886   -0.03424
 21 Cu   -0.00225    0.00410   -0.01719
 22 Cu   -0.00022    0.00616    0.00007
 23 Cu    0.02339    0.01628    0.02828
 24 Cu    0.03936    0.01403    0.03672
 25 Cu   -0.00031   -0.00511    0.07280
 26 Cu    0.01097   -0.00137   -0.02881
 27 Cu   -0.00716   -0.01159   -0.02430
 28 Cu    0.00660    0.01645    0.05169
 29 Cu   -0.02043   -0.01553   -0.00016
 30 Cu    0.01581    0.00528    0.01338
 31 Cu   -0.00077   -0.02419   -0.02002
 32 Cu   -0.03796   -0.02618   -0.03022
 33 Cu    0.00366    0.00056   -0.05851
 34 Cu   -0.02592    0.00555    0.07829
 35 Cu    0.02169   -0.02620    0.04519
 36 Cu    0.01331   -0.01205   -0.00948
 37 Cu    0.00366   -0.01224   -0.00967
 38 Cu   -0.01368   -0.00446    0.01201
 39 Cu   -0.04607   -0.00891    0.04529
 40 Cu   -0.02247   -0.01197    0.03799
 41 Cu    0.00319   -0.01799    0.06157
 42 Cu   -0.01694    0.01644   -0.04602
 43 Cu   -0.01307    0.01134   -0.01352
 44 Cu   -0.03514    0.00892    0.03239
 45 Cu   -0.00360   -0.02557   -0.05469
 46 Cu    0.02798   -0.04451    0.01741
 47 Cu    0.03446    0.00962    0.04331
 48 Cu    0.02624    0.02804    0.03829
 49 Cu   -0.01260   -0.02485    0.00753
 50 Cu   -0.00490   -0.01713   -0.10080
 51 Cu   -0.06362    0.09010   -0.00697
 52 Cu   -0.00248    0.00568   -0.05506
 53 Cu    0.01958    0.00488   -0.03418
 54 Cu   -0.05190    0.01490   -0.04178
 55 Cu    0.01133    0.03339    0.00559
 56 Cu   -0.01706    0.05028    0.01443
 57 Cu    0.01083    0.01466   -0.01331
 58 Cu    0.01189    0.01150    0.01285
 59 Cu    0.02318   -0.03567   -0.02558
 60 Cu   -0.00670    0.03218    0.02582
 61 Cu    0.02061   -0.02147    0.02484
 62 Cu   -0.01553    0.03438   -0.01952
 63 Cu    0.00116    0.02458   -0.06880
 64 Cu    0.01366   -0.02127   -0.04041
 65 Cu    0.00193    0.01122   -0.03089
 66 Cu    0.02427    0.01306    0.01619
 67 Cu    0.00206   -0.00520   -0.03708
 68 Cu   -0.00004   -0.00538   -0.00784
 69 Cu   -0.00951   -0.00635   -0.01282
 70 Cu    0.01474    0.00919    0.03208
 71 Cu    0.01653   -0.02022    0.02715
 72 Cu   -0.00107   -0.01165   -0.00830
 73 Cu    0.00487   -0.00233    0.00990
 74 Cu   -0.01739   -0.00883   -0.06389
 75 Cu   -0.00681    0.02122   -0.01789
 76 Cu   -0.03997   -0.00955    0.03849
 77 Cu   -0.04349    0.00199    0.04688
 78 Cu   -0.02251   -0.01082    0.00988
 79 Cu   -0.01661    0.01837   -0.02328
 80 Cu   -0.00642    0.02597   -0.02431
 81 Cu   -0.00016    0.00822   -0.04461
 82 Cu   -0.02137   -0.01756    0.04436
 83 Cu   -0.00966    0.00962    0.04252
 84 Cu    0.03196    0.01527   -0.05468
 85 Cu   -0.02479    0.00986    0.03294
 86 Cu   -0.03538    0.02003    0.03002
 87 Cu   -0.04117   -0.00996    0.07562
 88 Cu    0.01944   -0.00758    0.06129
 89 Cu   -0.02324   -0.00604    0.07517
 90 Cu    0.00905    0.00088   -0.01630
 91 Cu    0.01529   -0.01547   -0.02283
 92 Cu   -0.00666    0.00190    0.03182
 93 Cu    0.04438    0.00878   -0.00778
 94 Cu    0.00516   -0.00981    0.03626
 95 Cu   -0.00467   -0.01704   -0.07432
 96 Cl    0.00374    0.00539   -0.01659
 97 Cl    0.00809   -0.12300   -0.05065
 98 Cl    0.00851   -0.03598   -0.05162
 99 Cl    0.03019   -0.00003    0.05526
100 Cl    0.05914    0.03678   -0.03875
101 Cl   -0.05217    0.03481    0.02189
102 Cl    0.01103    0.02393    0.09214
103 Cl   -0.00245   -0.01317    0.06432
104 Cl    0.00414   -0.05300    0.03614
105 Cl   -0.02283    0.30972    0.13469
106 Cl   -0.05208    0.00754    0.01752
107 Cl    0.01165   -0.04707   -0.02195
108 Cl   -0.00973   -0.01851   -0.08947
109 Cl   -0.01929   -0.01582   -0.07773
110 Cl   -0.02260    0.06134    0.08564
111 Cl    0.05968    0.02098   -0.09522
112 Cl    0.00716    0.19026    0.20841
113 Cl    0.01805   -0.34737   -0.11544

System changes: positions 

Initializing position-dependent things.

Density initialized from wave functions
      .----------------------------.  
     /|                            |  
    / |                            |  
   /  |                            |  
  /   |                            |  
 *    |                            |  
 |    |                            |  
 |    |                            |  
 |    |                Cl          |  
 |    |                            |  
 |    |               Cl           |  
 |    |          Cl            Cl  |  
 |    | Cl                         |  
 |    |       Cl    Cu       Cl    |  
 |    |       Cu            Cu     |  
 |   Cl Cu       Cu Cl Cu       Cu |  
 |    |    Cu    Cu       Cu   Cu  |  
 |    |     Cu      Cu    Cu       |  
 |    Cu   Cu       Cu    Cu  Cu   |  
 |   Cu       Cu    Cu   Cu  Cu    |  
 |    |  Cu   Cu       Cu    Cu    |  
 | Cu |  Cu   Cu  Cu   Cu   CCu    |  
 | Cu | Cu  Cu   Cu    Cu Cu       |  
 |    |     Cu   Cu       Cu   CCu |  
 |    Cu   Cu    Cu       Cu       |  
 |    Cu   Cu  Cu   Cu    Cu Cu    |  
 |   Cu        Cu   Cu       Cu    |  
 |    |  Cu   Cu       Cu    Cu    |  
 | Cu |  Cu   Cu  Cu   Cu    Cu    |  
 | Cu | Cu  Cu   Cu    Cu Cu       |  
 |    |     Cu   Cu       Cu    CuCl  
 |    Cu    Cu       Cu   Cu       |  
 |    Cu    Cl Cu   Cu   Cl  Cu Cl |  
 |    |          Cl                |  
 |    |  Cu            CCu         |  
 |    |            Cl              |  
 |    |                            |  
 |    |                            |  
 |    |        Cl                  |  
 |    |                            |  
 |    |                            |  
 |    .----------------------------.  
 |   /                            /   
 |  /                            /    
 | /                            /     
 |/                            /      
 *----------------------------*       

Positions:
   0 Cu     3.309696    0.032226   10.022946    ( 0.0000,  0.0000,  0.0000)
   1 Cu     1.325376    1.864786   10.551507    ( 0.0000,  0.0000,  0.0000)
   2 Cu     7.229153    1.865635   10.481481    ( 0.0000,  0.0000,  0.0000)
   3 Cu     9.126246    0.005161   10.004994    ( 0.0000,  0.0000,  0.0000)
   4 Cu    11.318407    0.009816   11.399410    ( 0.0000,  0.0000,  0.0000)
   5 Cu     9.578185    1.852192   11.850964    ( 0.0000,  0.0000,  0.0000)
   6 Cu     3.753795    1.845071   11.761140    ( 0.0000,  0.0000,  0.0000)
   7 Cu     5.551735    0.004889   11.242000    ( 0.0000,  0.0000,  0.0000)
   8 Cu     7.875077    0.028789   12.341440    ( 0.0000,  0.0000,  0.0000)
   9 Cu     6.147434    1.861938   12.901387    ( 0.0000,  0.0000,  0.0000)
  10 Cu     0.264974    1.858796   13.004053    ( 0.0000,  0.0000,  0.0000)
  11 Cu     2.013642    0.005100   12.331644    ( 0.0000,  0.0000,  0.0000)
  12 Cu     4.358737    0.013743   13.485449    ( 0.0000,  0.0000,  0.0000)
  13 Cu     2.595721    1.866255   14.094475    ( 0.0000,  0.0000,  0.0000)
  14 Cu     8.430288    1.849244   14.184570    ( 0.0000,  0.0000,  0.0000)
  15 Cu    10.172437    0.000677   13.610188    ( 0.0000,  0.0000,  0.0000)
  16 Cu     0.834673    0.004030   14.716718    ( 0.0000,  0.0000,  0.0000)
  17 Cu    10.769929    1.851652   15.346894    ( 0.0000,  0.0000,  0.0000)
  18 Cu     4.960831    1.856756   15.222868    ( 0.0000,  0.0000,  0.0000)
  19 Cu     6.699472    0.004134   14.701842    ( 0.0000,  0.0000,  0.0000)
  20 Cu     9.018598   -0.006092   15.930302    ( 0.0000,  0.0000,  0.0000)
  21 Cu     7.275943    1.851532   16.493131    ( 0.0000,  0.0000,  0.0000)
  22 Cu     1.435681    1.856376   16.423274    ( 0.0000,  0.0000,  0.0000)
  23 Cu     3.201913    0.007533   15.793142    ( 0.0000,  0.0000,  0.0000)
  24 Cu     5.536305    0.004529   17.006110    ( 0.0000,  0.0000,  0.0000)
  25 Cu     3.796322    1.854408   17.547667    ( 0.0000,  0.0000,  0.0000)
  26 Cu     9.597544    1.851337   17.689895    ( 0.0000,  0.0000,  0.0000)
  27 Cu    11.365606    0.002657   17.058731    ( 0.0000,  0.0000,  0.0000)
  28 Cu     2.041598    0.007139   18.133633    ( 0.0000,  0.0000,  0.0000)
  29 Cu     0.265100    1.853273   18.763903    ( 0.0000,  0.0000,  0.0000)
  30 Cu     6.109012    1.857977   18.792982    ( 0.0000,  0.0000,  0.0000)
  31 Cu     7.851077   -0.001158   18.258634    ( 0.0000,  0.0000,  0.0000)
  32 Cu    10.202661    0.008236   19.403283    ( 0.0000,  0.0000,  0.0000)
  33 Cu     8.436430    1.845980   20.027650    ( 0.0000,  0.0000,  0.0000)
  34 Cu     2.642860    1.859082   19.858523    ( 0.0000,  0.0000,  0.0000)
  35 Cu     4.390615    0.001884   19.310714    ( 0.0000,  0.0000,  0.0000)
  36 Cu     6.666876    0.010306   20.571038    ( 0.0000,  0.0000,  0.0000)
  37 Cu     4.921823    1.867853   21.143787    ( 0.0000,  0.0000,  0.0000)
  38 Cu    10.768994    1.854035   21.181136    ( 0.0000,  0.0000,  0.0000)
  39 Cu     0.837202    0.008429   20.465417    ( 0.0000,  0.0000,  0.0000)
  40 Cu     3.214003    0.011571   21.601834    ( 0.0000,  0.0000,  0.0000)
  41 Cu     1.485010    1.865472   22.070954    ( 0.0000,  0.0000,  0.0000)
  42 Cu     7.278041    1.816231   22.268901    ( 0.0000,  0.0000,  0.0000)
  43 Cu     9.056324   -0.015707   21.762761    ( 0.0000,  0.0000,  0.0000)
  44 Cu    11.501050    0.014766   22.935340    ( 0.0000,  0.0000,  0.0000)
  45 Cu     9.500991    1.897776   23.551615    ( 0.0000,  0.0000,  0.0000)
  46 Cu     3.623887    1.876891   23.496547    ( 0.0000,  0.0000,  0.0000)
  47 Cu     5.520653   -0.010696   22.859749    ( 0.0000,  0.0000,  0.0000)
  48 Cu     3.298610    3.667911    9.941604    ( 0.0000,  0.0000,  0.0000)
  49 Cu     1.336902    5.552255   10.519078    ( 0.0000,  0.0000,  0.0000)
  50 Cu     7.268535    5.565964   10.666924    ( 0.0000,  0.0000,  0.0000)
  51 Cu     9.173369    3.662727    9.945750    ( 0.0000,  0.0000,  0.0000)
  52 Cu    11.325768    3.697427   11.379656    ( 0.0000,  0.0000,  0.0000)
  53 Cu     9.593646    5.542777   11.865746    ( 0.0000,  0.0000,  0.0000)
  54 Cu     3.765737    5.576201   11.739157    ( 0.0000,  0.0000,  0.0000)
  55 Cu     5.523038    3.726235   11.235498    ( 0.0000,  0.0000,  0.0000)
  56 Cu     7.890215    3.682865   12.341267    ( 0.0000,  0.0000,  0.0000)
  57 Cu     6.138235    5.545979   12.937393    ( 0.0000,  0.0000,  0.0000)
  58 Cu     0.271180    5.550833   12.997079    ( 0.0000,  0.0000,  0.0000)
  59 Cu     2.036333    3.715399   12.301413    ( 0.0000,  0.0000,  0.0000)
  60 Cu     4.365383    3.706959   13.476220    ( 0.0000,  0.0000,  0.0000)
  61 Cu     2.605866    5.557277   14.083573    ( 0.0000,  0.0000,  0.0000)
  62 Cu     8.424572    5.552214   14.163344    ( 0.0000,  0.0000,  0.0000)
  63 Cu    10.177817    3.696664   13.603296    ( 0.0000,  0.0000,  0.0000)
  64 Cu     0.839770    3.706752   14.716138    ( 0.0000,  0.0000,  0.0000)
  65 Cu    10.770496    5.549500   15.341402    ( 0.0000,  0.0000,  0.0000)
  66 Cu     4.954947    5.561057   15.231958    ( 0.0000,  0.0000,  0.0000)
  67 Cu     6.705732    3.697215   14.696761    ( 0.0000,  0.0000,  0.0000)
  68 Cu     9.018150    3.705463   15.933308    ( 0.0000,  0.0000,  0.0000)
  69 Cu     7.277400    5.551189   16.480056    ( 0.0000,  0.0000,  0.0000)
  70 Cu     1.440280    5.557196   16.423591    ( 0.0000,  0.0000,  0.0000)
  71 Cu     3.209115    3.709977   15.797087    ( 0.0000,  0.0000,  0.0000)
  72 Cu     5.539494    3.708198   16.996297    ( 0.0000,  0.0000,  0.0000)
  73 Cu     3.795259    5.558628   17.552660    ( 0.0000,  0.0000,  0.0000)
  74 Cu     9.605356    5.551414   17.692106    ( 0.0000,  0.0000,  0.0000)
  75 Cu    11.368835    3.700933   17.059422    ( 0.0000,  0.0000,  0.0000)
  76 Cu     2.043896    3.706214   18.131069    ( 0.0000,  0.0000,  0.0000)
  77 Cu     0.268274    5.555049   18.759117    ( 0.0000,  0.0000,  0.0000)
  78 Cu     6.116044    5.553623   18.791481    ( 0.0000,  0.0000,  0.0000)
  79 Cu     7.850267    3.703061   18.272602    ( 0.0000,  0.0000,  0.0000)
  80 Cu    10.203618    3.695057   19.398695    ( 0.0000,  0.0000,  0.0000)
  81 Cu     8.448876    5.556190   20.009692    ( 0.0000,  0.0000,  0.0000)
  82 Cu     2.647666    5.557262   19.859641    ( 0.0000,  0.0000,  0.0000)
  83 Cu     4.392291    3.708050   19.302954    ( 0.0000,  0.0000,  0.0000)
  84 Cu     6.665540    3.694414   20.598948    ( 0.0000,  0.0000,  0.0000)
  85 Cu     4.937259    5.533789   21.149354    ( 0.0000,  0.0000,  0.0000)
  86 Cu    10.791771    5.554162   21.146234    ( 0.0000,  0.0000,  0.0000)
  87 Cu     0.841782    3.704386   20.459888    ( 0.0000,  0.0000,  0.0000)
  88 Cu     3.234341    3.704166   21.611614    ( 0.0000,  0.0000,  0.0000)
  89 Cu     1.487320    5.551533   22.062282    ( 0.0000,  0.0000,  0.0000)
  90 Cu     7.257788    5.566109   22.266880    ( 0.0000,  0.0000,  0.0000)
  91 Cu     9.040303    3.717759   21.736111    ( 0.0000,  0.0000,  0.0000)
  92 Cu    11.488808    3.695972   22.918833    ( 0.0000,  0.0000,  0.0000)
  93 Cu     9.509505    5.517698   23.478806    ( 0.0000,  0.0000,  0.0000)
  94 Cu     3.653657    5.547634   23.460251    ( 0.0000,  0.0000,  0.0000)
  95 Cu     5.565770    3.696387   22.983927    ( 0.0000,  0.0000,  0.0000)
  96 Cl    10.175134    3.760950   24.910721    ( 0.0000,  0.0000,  0.0000)
  97 Cl     7.191089    4.953872   26.587661    ( 0.0000,  0.0000,  0.0000)
  98 Cl     4.235212    3.742662   24.917228    ( 0.0000,  0.0000,  0.0000)
  99 Cl     4.387727   -0.002901   24.849054    ( 0.0000,  0.0000,  0.0000)
 100 Cl     7.164436    2.133345   24.511185    ( 0.0000,  0.0000,  0.0000)
 101 Cl    10.025906   -0.042958   24.844980    ( 0.0000,  0.0000,  0.0000)
 102 Cl    13.001657    5.598186   24.317172    ( 0.0000,  0.0000,  0.0000)
 103 Cl    12.990759    1.818631   24.340930    ( 0.0000,  0.0000,  0.0000)
 104 Cl     5.613990    3.370635    8.997115    ( 0.0000,  0.0000,  0.0000)
 105 Cl     5.529261    0.549704    6.405516    ( 0.0000,  0.0000,  0.0000)
 106 Cl     2.645157    1.776055    8.572324    ( 0.0000,  0.0000,  0.0000)
 107 Cl     2.846100    5.609019    8.612081    ( 0.0000,  0.0000,  0.0000)
 108 Cl    -0.215082   -0.065449    9.135548    ( 0.0000,  0.0000,  0.0000)
 109 Cl    -0.192982    3.753212    9.099101    ( 0.0000,  0.0000,  0.0000)
 110 Cl    -3.180569    1.789621    8.522508    ( 0.0000,  0.0000,  0.0000)
 111 Cl    -3.384972    5.550185    8.645786    ( 0.0000,  0.0000,  0.0000)
 112 Cl     7.200626   -0.517264   27.146128    ( 0.0000,  0.0000,  0.0000)
 113 Cl     5.677528    6.016957    5.884505    ( 0.0000,  0.0000,  0.0000)

Unit cell:
           periodic     x           y           z      points  spacing
  1. axis:    yes   11.703590    0.000000    0.000000    70     0.1672
  2. axis:    yes    0.000000    7.402000    0.000000    42     0.1762
  3. axis:    no     0.000000    0.000000   33.459128   192     0.1743

  Lengths:  11.703590   7.402000  33.459128
  Angles:   90.000000  90.000000  90.000000

Effective grid spacing dv^(1/3) = 0.1725

     iter     time        total  log10-change:
                         energy  eigst   dens
iter:   1 08:47:15 -7929.950126  -2.73
iter:   2 08:51:32 -7929.843430  -3.53  -2.69
iter:   3 08:55:49 -7929.784983c -3.91  -2.76
iter:   4 09:00:05 -7929.684032c -4.38  -2.84
iter:   5 09:04:21 -7929.672346c -4.29  -3.10
iter:   6 09:08:37 -7929.669139c -4.74  -3.36
iter:   7 09:12:53 -7929.667695c -5.37  -3.54
iter:   8 09:17:10 -7929.667646c -5.42  -3.65
iter:   9 09:21:28 -7929.667229c -5.65  -3.79
iter:  10 09:25:47 -7929.666967c -6.06  -3.99
iter:  11 09:30:06 -7929.667026c -6.64  -4.09c
iter:  12 09:34:23 -7929.666729c -6.70  -4.06c
iter:  13 09:38:42 -7929.666720c -6.67  -4.29c
iter:  14 09:43:00 -7929.666745c -7.13  -4.38c
iter:  15 09:47:18 -7929.666750c -7.42c -4.49c

Converged after 15 iterations.

Dipole moment: (53.914025, 5.126396, 0.028483) |e|*Ang

Energy contributions relative to reference atoms: (reference = -4548048.465870)

Kinetic:       +851.710248
Potential:     -911.342521
External:        +0.000000
XC:            -7868.336460
Entropy (-ST):   -0.922801
Local:           -1.236617
--------------------------
Free energy:   -7930.128151
Extrapolated:  -7929.666750

Showing only first 2 kpts
 Kpt  Band  Eigenvalues  Occupancy
  0   589      0.57010    0.93031
  0   590      0.61334    0.72156
  0   591      0.66868    0.49002
  0   592      0.74105    0.27197

  1   589      0.16554    1.96055
  1   590      0.31740    1.83173
  1   591      0.36541    1.74145
  1   592      0.44974    1.48692


Fermi level: 0.55614

No gap

Forces in eV/Ang:
  0 Cu   -0.02165   -0.00348   -0.04923
  1 Cu   -0.00511    0.00547   -0.03311
  2 Cu    0.00321    0.00023    0.07502
  3 Cu    0.04859   -0.01987   -0.04286
  4 Cu    0.03007   -0.02114   -0.18623
  5 Cu   -0.00430    0.01890   -0.04394
  6 Cu    0.01696   -0.01815    0.01790
  7 Cu   -0.02515   -0.01248    0.00074
  8 Cu    0.00162    0.00233   -0.03102
  9 Cu   -0.00226   -0.00383    0.00029
 10 Cu    0.02779    0.00264   -0.02748
 11 Cu    0.01182   -0.00900   -0.00842
 12 Cu   -0.01220   -0.01566    0.01075
 13 Cu    0.01799   -0.00695   -0.00873
 14 Cu    0.00956    0.00417   -0.03713
 15 Cu    0.00056    0.00561   -0.00441
 16 Cu    0.01264   -0.00789   -0.00951
 17 Cu    0.00496    0.00727   -0.04835
 18 Cu   -0.00479   -0.00459    0.02287
 19 Cu    0.00742    0.01272   -0.00797
 20 Cu    0.00991    0.01915   -0.03848
 21 Cu    0.00400    0.00770   -0.01370
 22 Cu    0.00392   -0.00339    0.02832
 23 Cu    0.00603   -0.00190    0.05753
 24 Cu    0.00153    0.00483    0.00917
 25 Cu   -0.00131    0.00117    0.04946
 26 Cu    0.00173    0.00394   -0.02613
 27 Cu    0.01252   -0.00258   -0.01755
 28 Cu   -0.01031   -0.00409    0.04115
 29 Cu   -0.01407   -0.00083    0.01604
 30 Cu    0.00076    0.00183   -0.00417
 31 Cu   -0.00146    0.00125   -0.02819
 32 Cu   -0.00452    0.00263   -0.01963
 33 Cu    0.02156   -0.00047   -0.03290
 34 Cu   -0.01331    0.00006    0.02344
 35 Cu   -0.01906   -0.00204    0.02865
 36 Cu    0.00485   -0.01502    0.00124
 37 Cu   -0.00042   -0.02487   -0.00384
 38 Cu   -0.00065   -0.00837   -0.01734
 39 Cu   -0.03086   -0.00199    0.03052
 40 Cu   -0.00382   -0.01272    0.04290
 41 Cu   -0.02061   -0.00773    0.10921
 42 Cu    0.00011    0.02033   -0.01188
 43 Cu   -0.01723    0.00119   -0.01826
 44 Cu   -0.01789    0.00864    0.04995
 45 Cu   -0.00671   -0.00308   -0.02454
 46 Cu    0.00608   -0.05432    0.01818
 47 Cu    0.00527    0.00228    0.04079
 48 Cu    0.00942   -0.00399   -0.00578
 49 Cu   -0.02173   -0.02113   -0.04790
 50 Cu   -0.00277   -0.00403   -0.09246
 51 Cu    0.00966    0.06901    0.00299
 52 Cu    0.02101    0.00843   -0.16686
 53 Cu    0.01102    0.01890   -0.04353
 54 Cu   -0.00183   -0.01337   -0.00025
 55 Cu   -0.00061    0.01675    0.01990
 56 Cu    0.00131    0.00632   -0.01089
 57 Cu   -0.01013    0.00669   -0.03344
 58 Cu    0.02874   -0.00132   -0.01919
 59 Cu   -0.00604   -0.00352    0.00481
 60 Cu   -0.00532    0.01145   -0.00260
 61 Cu   -0.00955   -0.01639    0.01603
 62 Cu    0.02685    0.01176   -0.00837
 63 Cu   -0.00603    0.00711    0.01502
 64 Cu    0.01020    0.01184   -0.01632
 65 Cu    0.00773    0.00334   -0.04248
 66 Cu    0.01864   -0.00420    0.03221
 67 Cu   -0.00707    0.00335    0.00452
 68 Cu    0.00368   -0.00257   -0.06111
 69 Cu   -0.00699   -0.00238   -0.01892
 70 Cu   -0.00471   -0.00289    0.01274
 71 Cu   -0.00445   -0.01210    0.03364
 72 Cu   -0.00753   -0.01229    0.00572
 73 Cu   -0.00856   -0.00178    0.02981
 74 Cu   -0.00231    0.00541   -0.04431
 75 Cu    0.01252    0.00948   -0.01748
 76 Cu   -0.01599   -0.00278    0.04351
 77 Cu   -0.00708    0.00441    0.01646
 78 Cu   -0.00966   -0.00738   -0.00530
 79 Cu    0.00458   -0.00230   -0.03492
 80 Cu   -0.00298   -0.00182   -0.01570
 81 Cu    0.00167   -0.00615   -0.00801
 82 Cu   -0.03103   -0.01018    0.02313
 83 Cu   -0.01861   -0.00437    0.01018
 84 Cu    0.00363    0.02277   -0.01442
 85 Cu    0.01187    0.01306    0.02459
 86 Cu   -0.01269    0.00376    0.02243
 87 Cu   -0.02522   -0.00606    0.03739
 88 Cu   -0.02888   -0.00644    0.04481
 89 Cu   -0.02143   -0.00278    0.10529
 90 Cu    0.02225   -0.01208   -0.02125
 91 Cu    0.00162    0.01163   -0.02213
 92 Cu    0.00555   -0.00899    0.03255
 93 Cu    0.01844    0.01734   -0.00282
 94 Cu   -0.00723    0.02694    0.04019
 95 Cu    0.00682   -0.01053   -0.04392
 96 Cl   -0.00626   -0.00430   -0.00462
 97 Cl    0.00566   -0.03525   -0.02096
 98 Cl    0.02859   -0.03291   -0.01952
 99 Cl    0.04850   -0.01631    0.02337
100 Cl    0.03484    0.03095   -0.05769
101 Cl   -0.04396    0.00646    0.02311
102 Cl    0.01774    0.02203    0.02359
103 Cl    0.00988   -0.00909    0.01200
104 Cl   -0.00983   -0.03321    0.03372
105 Cl   -0.00323    0.07147    0.06691
106 Cl   -0.00347    0.01649    0.01658
107 Cl    0.01299   -0.01521    0.00701
108 Cl   -0.03139   -0.01778    0.05557
109 Cl   -0.04480   -0.01340    0.06505
110 Cl   -0.00381    0.02451    0.04946
111 Cl   -0.00055    0.03089   -0.07371
112 Cl    0.00710    0.07956    0.18690
113 Cl   -0.00279   -0.09954   -0.06021

System changes: positions 

Initializing position-dependent things.

Density initialized from wave functions
      .----------------------------.  
     /|                            |  
    / |                            |  
   /  |                            |  
  /   |                            |  
 *    |                            |  
 |    |                            |  
 |    |                            |  
 |    |                Cl          |  
 |    |                            |  
 |    |               Cl           |  
 |    |          Cl            Cl  |  
 |    | Cl                         |  
 |    |       Cl    Cu       Cl    |  
 |    |                     Cu     |  
 |   Cl Cu       Cu Cl Cu       Cu |  
 |    |    Cu    Cu       Cu   Cu  |  
 |    |     Cu   Cu Cu    Cu       |  
 |    Cu   Cu       Cu    Cu Cu    |  
 |   Cu       Cu    Cu   Cu  Cu    |  
 |    |  Cu   Cu       Cu    Cu    |  
 | Cu |  Cu   Cu  Cu   Cu   CCu    |  
 | Cu | Cu       Cu    Cu Cu       |  
 |    |     Cu   Cu       Cu   CCu |  
 |    Cu   Cu    Cu       Cu       |  
 |    Cu   Cu  Cu   Cu    Cu Cu    |  
 |   Cu        Cu   Cu       Cu    |  
 |    |  Cu   Cu       Cu    Cu    |  
 | Cu |  Cu   Cu  Cu   Cu    Cu    |  
 | Cu | Cu  Cu   Cu    Cu Cu Cu    |  
 |    |     Cu   Cu       Cu    CuCl  
 |    Cu    Cu       Cu   Cu       |  
 |    Cu    Cl Cu   Cu   Cl  Cu Cl |  
 |    |          Cl                |  
 |    |  Cu            Cl          |  
 |    |            Cl              |  
 |    |                            |  
 |    |                            |  
 |    |        Cl                  |  
 |    |                            |  
 |    |                            |  
 |    .----------------------------.  
 |   /                            /   
 |  /                            /    
 | /                            /     
 |/                            /      
 *----------------------------*       

Positions:
   0 Cu     3.304897    0.031240   10.019432    ( 0.0000,  0.0000,  0.0000)
   1 Cu     1.328056    1.864887   10.549985    ( 0.0000,  0.0000,  0.0000)
   2 Cu     7.235655    1.867742   10.492954    ( 0.0000,  0.0000,  0.0000)
   3 Cu     9.126025   -0.002493   10.000709    ( 0.0000,  0.0000,  0.0000)
   4 Cu    11.324760    0.010564   11.395172    ( 0.0000,  0.0000,  0.0000)
   5 Cu     9.581882    1.851604   11.851120    ( 0.0000,  0.0000,  0.0000)
   6 Cu     3.755970    1.844466   11.766886    ( 0.0000,  0.0000,  0.0000)
   7 Cu     5.548042    0.001985   11.250410    ( 0.0000,  0.0000,  0.0000)
   8 Cu     7.876407    0.024329   12.326522    ( 0.0000,  0.0000,  0.0000)
   9 Cu     6.140678    1.859664   12.905020    ( 0.0000,  0.0000,  0.0000)
  10 Cu     0.269521    1.853824   12.992209    ( 0.0000,  0.0000,  0.0000)
  11 Cu     2.021305    0.001539   12.326267    ( 0.0000,  0.0000,  0.0000)
  12 Cu     4.357866    0.002938   13.494552    ( 0.0000,  0.0000,  0.0000)
  13 Cu     2.593037    1.861875   14.098383    ( 0.0000,  0.0000,  0.0000)
  14 Cu     8.429442    1.851467   14.178537    ( 0.0000,  0.0000,  0.0000)
  15 Cu    10.174256    0.004043   13.601159    ( 0.0000,  0.0000,  0.0000)
  16 Cu     0.841072    0.005561   14.713624    ( 0.0000,  0.0000,  0.0000)
  17 Cu    10.775797    1.856419   15.339762    ( 0.0000,  0.0000,  0.0000)
  18 Cu     4.960110    1.853255   15.223587    ( 0.0000,  0.0000,  0.0000)
  19 Cu     6.701792    0.003969   14.697696    ( 0.0000,  0.0000,  0.0000)
  20 Cu     9.017303   -0.001548   15.925378    ( 0.0000,  0.0000,  0.0000)
  21 Cu     7.275507    1.852017   16.490604    ( 0.0000,  0.0000,  0.0000)
  22 Cu     1.435555    1.857509   16.422425    ( 0.0000,  0.0000,  0.0000)
  23 Cu     3.205818    0.010486   15.796606    ( 0.0000,  0.0000,  0.0000)
  24 Cu     5.543172    0.006818   17.012555    ( 0.0000,  0.0000,  0.0000)
  25 Cu     3.796344    1.853402   17.559342    ( 0.0000,  0.0000,  0.0000)
  26 Cu     9.599483    1.851001   17.685511    ( 0.0000,  0.0000,  0.0000)
  27 Cu    11.363975    0.000677   17.054810    ( 0.0000,  0.0000,  0.0000)
  28 Cu     2.043034    0.010155   18.141752    ( 0.0000,  0.0000,  0.0000)
  29 Cu     0.261751    1.850513   18.763649    ( 0.0000,  0.0000,  0.0000)
  30 Cu     6.111781    1.858867   18.795631    ( 0.0000,  0.0000,  0.0000)
[...]
  30 Cu     6.106328    1.852207   18.782665    ( 0.0000,  0.0000,  0.0000)
  31 Cu     7.863956   -0.003759   18.205165    ( 0.0000,  0.0000,  0.0000)
  32 Cu    10.206143    0.001792   19.370019    ( 0.0000,  0.0000,  0.0000)
  33 Cu     8.455219    1.842900   19.973572    ( 0.0000,  0.0000,  0.0000)
  34 Cu     2.600826    1.850294   19.944875    ( 0.0000,  0.0000,  0.0000)
  35 Cu     4.362844   -0.010318   19.356116    ( 0.0000,  0.0000,  0.0000)
  36 Cu     6.674886    0.000531   20.540025    ( 0.0000,  0.0000,  0.0000)
  37 Cu     4.913502    1.850741   21.157348    ( 0.0000,  0.0000,  0.0000)
  38 Cu    10.766801    1.837527   21.189434    ( 0.0000,  0.0000,  0.0000)
  39 Cu     0.807859    0.000365   20.548012    ( 0.0000,  0.0000,  0.0000)
  40 Cu     3.198538   -0.004124   21.673293    ( 0.0000,  0.0000,  0.0000)
  41 Cu     1.462914    1.853034   22.194395    ( 0.0000,  0.0000,  0.0000)
  42 Cu     7.289475    1.817080   22.217401    ( 0.0000,  0.0000,  0.0000)
  43 Cu     9.049137   -0.020888   21.736937    ( 0.0000,  0.0000,  0.0000)
  44 Cu    11.455532    0.021253   23.025478    ( 0.0000,  0.0000,  0.0000)
  45 Cu     9.499944    1.902022   23.538177    ( 0.0000,  0.0000,  0.0000)
  46 Cu     3.659430    1.807547   23.565514    ( 0.0000,  0.0000,  0.0000)
  47 Cu     5.562200   -0.030202   22.852758    ( 0.0000,  0.0000,  0.0000)
  48 Cu     3.309015    3.653099    9.930742    ( 0.0000,  0.0000,  0.0000)
  49 Cu     1.352677    5.534848   10.440480    ( 0.0000,  0.0000,  0.0000)
  50 Cu     7.241434    5.582762   10.618408    ( 0.0000,  0.0000,  0.0000)
  51 Cu     9.143862    3.744772    9.896627    ( 0.0000,  0.0000,  0.0000)
  52 Cu    11.345302    3.705270   11.266177    ( 0.0000,  0.0000,  0.0000)
  53 Cu     9.606340    5.557741   11.791789    ( 0.0000,  0.0000,  0.0000)
  54 Cu     3.757635    5.575039   11.733635    ( 0.0000,  0.0000,  0.0000)
  55 Cu     5.515699    3.737457   11.257622    ( 0.0000,  0.0000,  0.0000)
  56 Cu     7.893108    3.701588   12.312550    ( 0.0000,  0.0000,  0.0000)
  57 Cu     6.132322    5.551914   12.933746    ( 0.0000,  0.0000,  0.0000)
  58 Cu     0.293670    5.553955   12.918651    ( 0.0000,  0.0000,  0.0000)
  59 Cu     2.039670    3.717622   12.277912    ( 0.0000,  0.0000,  0.0000)
  60 Cu     4.349084    3.711352   13.499279    ( 0.0000,  0.0000,  0.0000)
  61 Cu     2.599120    5.552264   14.099576    ( 0.0000,  0.0000,  0.0000)
  62 Cu     8.446421    5.564457   14.112306    ( 0.0000,  0.0000,  0.0000)
  63 Cu    10.207243    3.704815   13.520703    ( 0.0000,  0.0000,  0.0000)
  64 Cu     0.852332    3.706421   14.682306    ( 0.0000,  0.0000,  0.0000)
  65 Cu    10.797697    5.555321   15.267834    ( 0.0000,  0.0000,  0.0000)
  66 Cu     4.943533    5.558622   15.265359    ( 0.0000,  0.0000,  0.0000)
  67 Cu     6.701267    3.700673   14.686956    ( 0.0000,  0.0000,  0.0000)
  68 Cu     9.041310    3.705369   15.854641    ( 0.0000,  0.0000,  0.0000)
  69 Cu     7.283195    5.550117   16.444269    ( 0.0000,  0.0000,  0.0000)
  70 Cu     1.430500    5.553937   16.443142    ( 0.0000,  0.0000,  0.0000)
  71 Cu     3.190723    3.703083   15.842118    ( 0.0000,  0.0000,  0.0000)
  72 Cu     5.524503    3.700455   17.014444    ( 0.0000,  0.0000,  0.0000)
  73 Cu     3.764859    5.549825   17.610507    ( 0.0000,  0.0000,  0.0000)
  74 Cu     9.621423    5.551898   17.620725    ( 0.0000,  0.0000,  0.0000)
  75 Cu    11.376969    3.701714   17.025472    ( 0.0000,  0.0000,  0.0000)
  76 Cu     2.009136    3.699160   18.192198    ( 0.0000,  0.0000,  0.0000)
  77 Cu     0.251383    5.550865   18.785267    ( 0.0000,  0.0000,  0.0000)
  78 Cu     6.108627    5.547181   18.777684    ( 0.0000,  0.0000,  0.0000)
  79 Cu     7.865214    3.699043   18.213676    ( 0.0000,  0.0000,  0.0000)
  80 Cu    10.211410    3.694253   19.366218    ( 0.0000,  0.0000,  0.0000)
  81 Cu     8.464545    5.550218   19.954657    ( 0.0000,  0.0000,  0.0000)
  82 Cu     2.601946    5.543802   19.944030    ( 0.0000,  0.0000,  0.0000)
  83 Cu     4.360414    3.698733   19.350644    ( 0.0000,  0.0000,  0.0000)
  84 Cu     6.670863    3.693762   20.553298    ( 0.0000,  0.0000,  0.0000)
  85 Cu     4.927243    5.523742   21.169424    ( 0.0000,  0.0000,  0.0000)
  86 Cu    10.783253    5.559640   21.173361    ( 0.0000,  0.0000,  0.0000)
  87 Cu     0.816162    3.695566   20.541039    ( 0.0000,  0.0000,  0.0000)
  88 Cu     3.214662    3.691348   21.698111    ( 0.0000,  0.0000,  0.0000)
  89 Cu     1.458121    5.541268   22.186945    ( 0.0000,  0.0000,  0.0000)
  90 Cu     7.279982    5.550522   22.218607    ( 0.0000,  0.0000,  0.0000)
  91 Cu     9.051090    3.718701   21.699565    ( 0.0000,  0.0000,  0.0000)
  92 Cu    11.451151    3.680409   22.949120    ( 0.0000,  0.0000,  0.0000)
  93 Cu     9.502979    5.520549   23.487347    ( 0.0000,  0.0000,  0.0000)
  94 Cu     3.677155    5.570750   23.542169    ( 0.0000,  0.0000,  0.0000)
  95 Cu     5.577422    3.691279   22.956639    ( 0.0000,  0.0000,  0.0000)
  96 Cl    10.211035    3.779953   24.934300    ( 0.0000,  0.0000,  0.0000)
  97 Cl     7.213521    5.166440   26.697391    ( 0.0000,  0.0000,  0.0000)
  98 Cl     4.290964    3.720379   24.926591    ( 0.0000,  0.0000,  0.0000)
  99 Cl     4.593211   -0.019749   24.913008    ( 0.0000,  0.0000,  0.0000)
 100 Cl     7.225736    2.293935   24.443095    ( 0.0000,  0.0000,  0.0000)
 101 Cl     9.927744   -0.034158   24.890007    ( 0.0000,  0.0000,  0.0000)
 102 Cl    13.069506    5.670552   24.438540    ( 0.0000,  0.0000,  0.0000)
 103 Cl    13.051674    1.784847   24.458912    ( 0.0000,  0.0000,  0.0000)
 104 Cl     5.585335    3.242873    9.034117    ( 0.0000,  0.0000,  0.0000)
 105 Cl     5.578999    0.367629    6.658985    ( 0.0000,  0.0000,  0.0000)
 106 Cl     2.597267    1.774565    8.534685    ( 0.0000,  0.0000,  0.0000)
 107 Cl     2.881884    5.588480    8.579005    ( 0.0000,  0.0000,  0.0000)
 108 Cl    -0.265187   -0.128463    9.022984    ( 0.0000,  0.0000,  0.0000)
 109 Cl    -0.252250    3.757215    9.002223    ( 0.0000,  0.0000,  0.0000)
 110 Cl    -3.188620    1.827735    8.536349    ( 0.0000,  0.0000,  0.0000)
 111 Cl    -3.500014    5.574454    8.553496    ( 0.0000,  0.0000,  0.0000)
 112 Cl     7.263779   -0.512094   27.741481    ( 0.0000,  0.0000,  0.0000)
 113 Cl     5.573946    5.998714    5.696730    ( 0.0000,  0.0000,  0.0000)

Unit cell:
           periodic     x           y           z      points  spacing
  1. axis:    yes   11.703590    0.000000    0.000000    70     0.1672
  2. axis:    yes    0.000000    7.402000    0.000000    42     0.1762
  3. axis:    no     0.000000    0.000000   33.459128   192     0.1743

  Lengths:  11.703590   7.402000  33.459128
  Angles:   90.000000  90.000000  90.000000

Effective grid spacing dv^(1/3) = 0.1725

     iter     time        total  log10-change:
                         energy  eigst   dens
iter:   1 07:14:05 -7929.872889  -3.73
iter:   2 07:18:55 -7929.876509  -4.81  -3.44
iter:   3 07:23:28 -7929.872177c -5.17  -3.33
iter:   4 07:27:53 -7929.867018c -4.92  -3.43
iter:   5 07:32:26 -7929.865531c -5.79  -3.78
iter:   6 07:37:22 -7929.865348c -5.96  -3.99
iter:   7 07:42:17 -7929.865351c -6.34  -4.10c
iter:   8 07:46:55 -7929.865267c -6.31  -4.19c
iter:   9 07:51:52 -7929.865244c -6.80  -4.36c
iter:  10 07:56:19 -7929.865162c -7.25  -4.36c
iter:  11 08:00:45 -7929.865111c -7.09  -4.50c
iter:  12 08:05:29 -7929.865112c -7.26  -4.77c
iter:  13 08:09:55 -7929.865096c -7.74c -4.90c

Converged after 13 iterations.

Dipole moment: (59.462977, 9.871986, 0.007885) |e|*Ang

Energy contributions relative to reference atoms: (reference = -4548048.465870)

Kinetic:       +836.546366
Potential:     -899.630436
External:        +0.000000
XC:            -7865.051967
Entropy (-ST):   -0.929243
Local:           -1.264438
--------------------------
Free energy:   -7930.329718
Extrapolated:  -7929.865096

Showing only first 2 kpts
 Kpt  Band  Eigenvalues  Occupancy
  0   589      0.56086    0.96172
  0   590      0.61676    0.69250
  0   591      0.67402    0.46004
  0   592      0.75625    0.23208

  1   589      0.16940    1.95783
  1   590      0.29985    1.85292
  1   591      0.36570    1.73406
  1   592      0.47515    1.37156


Fermi level: 0.55320

No gap

Forces in eV/Ang:
  0 Cu   -0.01563   -0.00530   -0.00011
  1 Cu    0.00064    0.00379   -0.00030
  2 Cu    0.00123   -0.00158   -0.00184
  3 Cu    0.00939   -0.00915   -0.00638
  4 Cu   -0.00095    0.00214    0.00492
  5 Cu   -0.00299   -0.00615   -0.00840
  6 Cu   -0.00423   -0.00284   -0.00436
  7 Cu   -0.00582    0.00163   -0.00194
  8 Cu    0.00073   -0.00043   -0.00235
  9 Cu    0.00273    0.00214   -0.00574
 10 Cu   -0.00129   -0.00278    0.00179
 11 Cu   -0.00448    0.00468    0.00279
 12 Cu   -0.00045   -0.00122    0.00369
 13 Cu    0.00219    0.00151   -0.00124
 14 Cu   -0.00102   -0.00188   -0.00266
 15 Cu   -0.00034   -0.00033    0.00107
 16 Cu    0.00042   -0.00103    0.00225
 17 Cu   -0.00405    0.00071    0.00004
 18 Cu    0.00644   -0.00301   -0.00633
 19 Cu    0.00299    0.00242   -0.00222
 20 Cu   -0.00298   -0.00295    0.00153
 21 Cu   -0.00272   -0.00040    0.00319
 22 Cu    0.00009   -0.00237   -0.00022
 23 Cu    0.00244   -0.00278    0.00265
 24 Cu   -0.00073   -0.00143   -0.00214
 25 Cu    0.00656   -0.00109   -0.00729
 26 Cu   -0.00074    0.00032   -0.00480
 27 Cu   -0.00239    0.00143    0.00029
 28 Cu    0.00327   -0.00039   -0.00128
 29 Cu    0.00411    0.00045    0.00300
 30 Cu    0.00213    0.00322    0.00139
 31 Cu   -0.00761   -0.00237   -0.00310
 32 Cu    0.00012   -0.00152    0.00018
 33 Cu    0.00400   -0.00212   -0.00550
 34 Cu    0.00256    0.00127    0.00044
 35 Cu   -0.00152    0.00139    0.00035
 36 Cu    0.00288   -0.00061   -0.00708
 37 Cu   -0.00071    0.00101   -0.00544
 38 Cu    0.00013    0.00066    0.00010
 39 Cu    0.00572   -0.00108   -0.00251
 40 Cu    0.00263   -0.00241    0.00279
 41 Cu    0.00036   -0.00368    0.00281
 42 Cu    0.00458    0.00184   -0.01205
 43 Cu    0.00728    0.00198    0.00008
 44 Cu   -0.00010    0.00262    0.00191
 45 Cu    0.00649    0.00532    0.00345
 46 Cu   -0.00287   -0.00583    0.00506
 47 Cu    0.00378    0.00059   -0.00802
 48 Cu   -0.00904   -0.00812   -0.00098
 49 Cu    0.00444   -0.00469   -0.00137
 50 Cu    0.00254    0.00162    0.00100
 51 Cu    0.00345    0.00728    0.00042
 52 Cu   -0.00784   -0.00545    0.01202
 53 Cu   -0.00260   -0.00024   -0.00088
 54 Cu   -0.00592   -0.00183    0.00022
 55 Cu   -0.00160   -0.00517    0.00129
 56 Cu    0.00381    0.00255   -0.00030
 57 Cu   -0.00153    0.00584   -0.00190
 58 Cu   -0.00063    0.00096   -0.00262
 59 Cu   -0.00326   -0.00008   -0.00026
 60 Cu    0.00163    0.00149    0.00156
 61 Cu    0.00215    0.00317    0.00007
 62 Cu   -0.00241   -0.00084   -0.00204
 63 Cu    0.00000   -0.00361    0.00001
 64 Cu   -0.00408   -0.00072    0.00064
 65 Cu   -0.00727    0.00001    0.00244
 66 Cu    0.00578   -0.00097    0.00128
 67 Cu   -0.00059    0.00125    0.00088
 68 Cu   -0.00712   -0.00095    0.00350
 69 Cu   -0.00038    0.00089    0.00004
 70 Cu    0.00282   -0.00203   -0.00223
 71 Cu   -0.00262   -0.00164   -0.00139
 72 Cu   -0.00176    0.00141    0.00033
 73 Cu    0.00610    0.00006    0.00294
 74 Cu   -0.00447    0.00035    0.00353
 75 Cu    0.00049    0.00233    0.00491
 76 Cu    0.00760    0.00043    0.00206
 77 Cu    0.00007    0.00265   -0.00566
 78 Cu   -0.00046   -0.00020    0.00178
 79 Cu   -0.00300    0.00407    0.00315
 80 Cu    0.00213   -0.00015    0.00242
 81 Cu    0.00472    0.00022   -0.00213
 82 Cu   -0.00063   -0.00028    0.00464
 83 Cu    0.00022    0.00314   -0.00122
 84 Cu   -0.00323   -0.00202    0.00050
 85 Cu    0.00113   -0.00306    0.00144
 86 Cu    0.00651   -0.00155    0.00248
 87 Cu    0.00015    0.00196    0.00205
 88 Cu   -0.00277    0.00185   -0.00038
 89 Cu   -0.00292    0.00564    0.01689
 90 Cu    0.00739    0.00445   -0.00793
 91 Cu    0.00166    0.00205   -0.00319
 92 Cu    0.00269    0.00087   -0.00246
 93 Cu    0.01044    0.00451   -0.00182
 94 Cu   -0.00751    0.00835    0.00347
 95 Cu   -0.00550   -0.00040   -0.00015
 96 Cl    0.00916    0.00061   -0.00011
 97 Cl    0.00314   -0.00159    0.02320
 98 Cl   -0.01248    0.00489   -0.00106
 99 Cl   -0.00579   -0.00129   -0.00044
100 Cl   -0.00607    0.00119    0.00523
101 Cl    0.00828    0.00035   -0.00387
102 Cl    0.00453    0.00877   -0.01315
103 Cl    0.00364   -0.00149   -0.01259
104 Cl   -0.00441    0.00084   -0.00641
105 Cl    0.00097   -0.00901    0.00007
106 Cl   -0.00248   -0.01045   -0.00569
107 Cl    0.00497   -0.00081   -0.00168
108 Cl   -0.00443   -0.00779    0.01138
109 Cl    0.00415    0.00621    0.01250
110 Cl    0.00072   -0.00678    0.00403
111 Cl   -0.00020   -0.00020    0.01387
112 Cl    0.00532   -0.00096   -0.01265
113 Cl   -0.01061    0.00399    0.00991

Timing:                                      incl.     excl.
-------------------------------------------------------------------
Density initialized from wave functions:   371.490   371.488   0.4% |
 Symmetrize density:                         0.001     0.001   0.0% |
Forces:                                   2580.788  2580.788   2.5% ||
Hamiltonian:                               468.864     0.552   0.0% |
 Atomic:                                    19.478     7.206   0.0% |
  XC Correction:                            12.273    12.273   0.0% |
 Calculate atomic Hamiltonians:            199.832   199.832   0.2% |
 Communicate:                                5.735     5.735   0.0% |
 Initialize Hamiltonian:                     0.001     0.001   0.0% |
 Poisson:                                    0.256     0.256   0.0% |
 XC 3D grid:                               243.009    36.184   0.0% |
  VdW-DF integral:                         206.825     1.394   0.0% |
   Convolution:                             18.169    18.169   0.0% |
   FFT:                                      6.762     6.762   0.0% |
   gather:                                  71.887    71.887   0.1% |
   hmm1:                                     8.992     8.992   0.0% |
   hmm2:                                     8.651     8.651   0.0% |
   iFFT:                                     6.683     6.683   0.0% |
   potential:                               76.799     0.733   0.0% |
    collect:                                 9.488     9.488   0.0% |
    p1:                                     38.516    38.516   0.0% |
    p2:                                     13.211    13.211   0.0% |
    sum:                                    14.851    14.851   0.0% |
   splines:                                  7.489     7.489   0.0% |
LCAO initialization:                      1153.618     0.667   0.0% |
 LCAO eigensolver:                          30.873     0.003   0.0% |
  Blacs Orbital Layouts:                     4.831     0.001   0.0% |
   General diagonalize:                      4.795     4.795   0.0% |
   Redistribute coefs:                       0.022     0.022   0.0% |
   Send coefs to domains:                    0.013     0.013   0.0% |
  Calculate projections:                     0.032     0.032   0.0% |
  Distribute overlap matrix:                25.241     0.002   0.0% |
   Scalapack redistribute:                   0.035     0.035   0.0% |
   blocked summation:                       25.203    25.203   0.0% |
  Potential matrix:                          0.435     0.435   0.0% |
  SparseAtomicCorrection:                    0.025     0.025   0.0% |
  Sum over cells:                            0.306     0.306   0.0% |
 LCAO to grid:                            1115.055  1115.055   1.1% |
 Set positions (LCAO WFS):                   7.023     0.046   0.0% |
  Basic WFS set positions:                   0.007     0.007   0.0% |
  Basis functions set positions:             0.001     0.001   0.0% |
  P tci:                                     0.029     0.029   0.0% |
  ST tci:                                    1.188     1.188   0.0% |
  Scalapack redistribute:                    0.077     0.077   0.0% |
  blocked summation:                         5.309     5.309   0.0% |
  mktci:                                     0.366     0.366   0.0% |
PWDescriptor:                                1.252     1.252   0.0% |
Redistribute:                                0.042     0.042   0.0% |
SCF-cycle:                               98880.829  3821.628   3.7% ||
 Davidson:                               82152.089 27200.652  26.1% |---------|
  Apply H:                                4453.362  4364.196   4.2% |-|
   HMM T:                                   89.167    89.167   0.1% |
  Subspace diag:                         12128.034     0.082   0.0% |
   calc_h_matrix:                         7251.357  2650.472   2.5% ||
    Apply H:                              4600.886  4488.332   4.3% |-|
     HMM T:                                112.554   112.554   0.1% |
   diagonalize:                            304.194   304.194   0.3% |
   rotate_psi:                            4572.402  4572.402   4.4% |-|
  calc. matrices:                        26839.309 18281.379  17.6% |------|
   Apply H:                               8557.930  8379.697   8.0% |--|
    HMM T:                                 178.233   178.233   0.2% |
  diagonalize:                            2359.424  2359.424   2.3% ||
  rotate_psi:                             9171.307  9171.307   8.8% |---|
 Density:                                 5544.438     0.023   0.0% |
  Atomic density matrices:                  14.985    14.985   0.0% |
  Mix:                                    2793.967  2793.967   2.7% ||
  Multipole moments:                         0.819     0.819   0.0% |
  Pseudo density:                         2734.645  2734.622   2.6% ||
   Symmetrize density:                       0.022     0.022   0.0% |
 Hamiltonian:                             6683.583     8.150   0.0% |
  Atomic:                                  331.997   156.513   0.2% |
   XC Correction:                          175.485   175.485   0.2% |
  Calculate atomic Hamiltonians:          2894.722  2894.722   2.8% ||
  Communicate:                              58.047    58.047   0.1% |
  Poisson:                                   3.730     3.730   0.0% |
  XC 3D grid:                             3386.938   508.536   0.5% |
   VdW-DF integral:                       2878.402    19.792   0.0% |
    Convolution:                           263.142   263.142   0.3% |
    FFT:                                    96.035    96.035   0.1% |
    gather:                               1029.650  1029.650   1.0% |
    hmm1:                                  129.339   129.339   0.1% |
    hmm2:                                  126.882   126.882   0.1% |
    iFFT:                                   96.539    96.539   0.1% |
    potential:                            1117.020    11.012   0.0% |
     collect:                              137.734   137.734   0.1% |
     p1:                                   555.363   555.363   0.5% |
     p2:                                   195.617   195.617   0.2% |
     sum:                                  217.294   217.294   0.2% |
    splines:                                 0.004     0.004   0.0% |
 Orthonormalize:                           679.091     0.011   0.0% |
  calc_s_matrix:                            86.666    86.666   0.1% |
  inverse-cholesky:                         15.996    15.996   0.0% |
  projections:                             429.778   429.778   0.4% |
  rotate_psi_s:                            146.640   146.640   0.1% |
Set symmetry:                                0.002     0.002   0.0% |
Other:                                     706.383   706.383   0.7% |
-------------------------------------------------------------------
Total:                                             104163.266 100.0%

Memory usage: 2.64 GiB
Date: Sun Nov 27 08:11:46 2022
