
  ___ ___ ___ _ _ _  
 |   |   |_  | | | | 
 | | | | | . | | | | 
 |__ |  _|___|_____|  22.1.0
 |___|_|             

User:   thorkong@node425.cluster
Date:   Wed Apr 12 21:40:20 2023
Arch:   x86_64
Pid:    31400
Python: 3.10.5
gpaw:   /groups/kemi/thorkong/miniconda3/envs/gpaw22/lib/python3.10/site-packages/gpaw
_gpaw:  /groups/kemi/thorkong/miniconda3/envs/gpaw22/lib/python3.10/site-packages/
        _gpaw.cpython-310-x86_64-linux-gnu.so
ase:    /groups/kemi/thorkong/miniconda3/envs/gpaw22/lib/python3.10/site-packages/ase (version 3.22.1)
numpy:  /groups/kemi/thorkong/miniconda3/envs/gpaw22/lib/python3.10/site-packages/numpy (version 1.23.0)
scipy:  /groups/kemi/thorkong/miniconda3/envs/gpaw22/lib/python3.10/site-packages/scipy (version 1.8.1)
libxc:  5.2.3
units:  Angstrom and eV
cores: 32
OpenMP: True
OMP_NUM_THREADS: 1

Input parameters:
  basis: dzp
  kpts: [4 4 1]
  mode: {ecut: 600.0,
         name: pw}
  xc: BEEF-vdW

System changes: positions, numbers, cell, pbc, initial_charges, initial_magmoms 

Initialize ...

Cu-setup:
  name: Copper
  id: f1c4d45d90492f1bbfdcb091e8418fdf
  Z: 29.0
  valence: 11
  core: 18
  charge: 0.0
  file: /groups/kemi/thorkong/miniconda3/envs/gpaw22/share/gpaw/Cu.PBE.gz
  compensation charges: gauss, rc=0.33, lmax=2
  cutoffs: 2.06(filt), 2.43(core),
  valence states:
                energy  radius
    4s(1.00)    -4.609   1.164
    4p(0.00)    -0.698   1.164
    3d(10.00)    -5.039   1.058
    *s          22.603   1.164
    *p          26.513   1.164
    *d          22.172   1.058

  LCAO basis set for Cu:
    Name: dzp
    File: /groups/kemi/thorkong/miniconda3/envs/gpaw22/share/gpaw/Cu.dzp.basis.gz
    Number of radial functions: 5
    Number of spherical harmonics: 15
      l=0, rc=8.9688 Bohr: 4s-sz confined orbital
      l=2, rc=5.1719 Bohr: 3d-sz confined orbital
      l=0, rc=5.3281 Bohr: 4s-dz split-valence wave
      l=2, rc=3.1406 Bohr: 3d-dz split-valence wave
      l=1, rc=8.9688 Bohr: p-type Gaussian polarization

Cl-setup:
  name: Chlorine
  id: 726897f06f34e53cf8e33b5885a02604
  Z: 17.0
  valence: 7
  core: 10
  charge: 0.0
  file: /groups/kemi/thorkong/miniconda3/envs/gpaw22/share/gpaw/Cl.PBE.gz
  compensation charges: gauss, rc=0.25, lmax=2
  cutoffs: 1.40(filt), 1.49(core),
  valence states:
                energy  radius
    3s(2.00)   -20.689   0.794
    3p(5.00)    -8.594   0.794
    *s           6.523   0.794
    *p          18.617   0.794
    *d           0.000   0.794

  LCAO basis set for Cl:
    Name: dzp
    File: /groups/kemi/thorkong/miniconda3/envs/gpaw22/share/gpaw/Cl.dzp.basis.gz
    Number of radial functions: 5
    Number of spherical harmonics: 13
      l=0, rc=5.1719 Bohr: 3s-sz confined orbital
      l=1, rc=6.2656 Bohr: 3p-sz confined orbital
      l=0, rc=2.8281 Bohr: 3s-dz split-valence wave
      l=1, rc=3.5156 Bohr: 3p-dz split-valence wave
      l=2, rc=6.2656 Bohr: d-type Gaussian polarization

Reference energy: -4623378.162245

Spin-paired calculation

Convergence criteria:
 Maximum [total energy] change in last 3 cyles: 0.0005 eV / electron
 Maximum integral of absolute [dens]ity change: 0.0001 electrons / valence electron
 Maximum integral of absolute [eigenst]ate change: 4e-08 eV^2 / valence electron
 Maximum number of scf [iter]ations: 333
 (Square brackets indicate name in SCF output, whereas a 'c' in
 the SCF output indicates the quantity has converged.)

Symmetries present (total): 1

  ( 1  0  0)
  ( 0  1  0)
  ( 0  0  1)

16 k-points: 4 x 4 x 1 Monkhorst-Pack grid
8 k-points in the irreducible part of the Brillouin zone
       k-points in crystal coordinates                weights
   0:     0.12500000   -0.37500000    0.00000000          2/16
   1:     0.12500000   -0.12500000    0.00000000          2/16
   2:     0.12500000    0.12500000    0.00000000          2/16
   3:     0.12500000    0.37500000    0.00000000          2/16
   4:     0.37500000   -0.37500000    0.00000000          2/16
   5:     0.37500000   -0.12500000    0.00000000          2/16
   6:     0.37500000    0.12500000    0.00000000          2/16
   7:     0.37500000    0.37500000    0.00000000          2/16

Wave functions: Plane wave expansion
  Cutoff energy: 600.000 eV
  Number of coefficients (min, max): 96699, 96750
  Pulay-stress correction: 0.000000 eV/Ang^3 (de/decut=0.000000)
  Using FFTW library
  ScaLapack parameters: grid=2x2, blocksize=64
  Wavefunction extrapolation:
    Improved wavefunction reuse through dual PAW basis 

Occupation numbers: Fermi-Dirac: width=0.1000 eV
 

Eigensolver
   Davidson(niter=2) 

Densities:
  Coarse grid: 70*42*192 grid
  Fine grid: 140*84*384 grid
  Total Charge: 0.000000 

Density mixing:
  Method: separate
  Backend: pulay
  Linear mixing parameter: 0.05
  Mixing with 5 old densities
  Damping of long wave oscillations: 50 

Hamiltonian:
  XC and Coulomb potentials evaluated on a 140*84*384 grid
  Using the BEEF-vdW Exchange-Correlation functional
  External potential:
    NoExternalPotential
 

XC parameters: BEEF-vdW with 2 nearest neighbor stencil

Memory estimate:
  Process memory now: 349.00 MiB
  Calculator: 2394.25 MiB
    Density: 70.86 MiB
      Arrays: 27.99 MiB
      Localized functions: 32.10 MiB
      Mixer: 10.77 MiB
    Hamiltonian: 19.09 MiB
      Arrays: 18.30 MiB
      XC: 0.00 MiB
      Poisson: 0.00 MiB
      vbar: 0.78 MiB
    Wavefunctions: 2304.31 MiB
      Arrays psit_nG: 1090.98 MiB
      Eigensolver: 1181.71 MiB
      Projections: 5.75 MiB
      Projectors: 3.69 MiB
      PW-descriptor: 22.18 MiB

Total number of cores used: 32
Parallelization over k-points: 8
Domain decomposition: 1 x 1 x 4
                      2 x 2 x 8 (xc only)

Number of atoms: 120
Number of atomic orbitals: 1752
Number of bands in calculation: 739
Number of valence electrons: 1224
Bands to converge: occupied

... initialized

Initializing position-dependent things.

Density initialized from atomic densities
Creating initial wave functions:
  739 bands from LCAO basis set

      .----------------------------.  
     /|                            |  
    / |                            |  
   /  |                            |  
  /   |                            |  
 *    |                            |  
 |    |                            |  
 |    |                            |  
 |    |                            |  
 |    Cl                           |  
 |    |                            |  
 |    |     Cl                Cl   |  
 |    |   Cl   Cu   Cl     Cl      |  
 | Cl |  Cl Cu     Cu       Cl    Cu  
 |    |                 Cl   Cu    |  
 |    |Clu    Cu Cl    Cu          |  
 |    | Cu       Cu   Cu   Cu   Cu |  
 |    |    Cu    Cu Cu    Cu   Cu  |  
 |    Cu   Cu       Cu    Cu   Cu  |  
 |   CCu   Cu Cu    Cu   Cu  Cu    |  
 |    |  Cu   Cu    Cu Cu    Cu   Cu  
 |    |  Cu   Cu       Cu    Cu    |  
 | Cu | Cu       Cu    Cu          |  
 |    |     Cu   Cu   Cu  Cu    Cu |  
 |    |    Cu             Cu    Cu |  
 |    Cu   Cu       Cu    Cu       |  
 |   CCu      Cu    Cu       Cu    |  
 |    |  Cu   Cu       Cu    Cu    |  
 | Cu |  Cu   Cu       Cu   Cu     |  
 | Cu |  Cu Cu   Cu   Cu  Cu       |  
 |    | Cl Cu      Cl     Cu    Cu |  
 |    Cu      Cu    CCu   Cu Cl    |  
 |   CCu   Cu  Cu            Cu    |  
 |    |     Cl Cl    Cl            |  
 |    |               Cu  Cl       |  
 |    |                            |  
 |    |   Cl                 Cl    |  
 |    |            Cl              |  
 |    |                Cl          |  
 |    |                            |  
 |    |                            |  
 |    .----------------------------.  
 |   /                            /   
 |  /                            /    
 | /                            /     
 |/                            /      
 *----------------------------*       

Positions:
   0 Cu     3.301531   -0.264699    8.411013    ( 0.0000,  0.0000,  0.0000)
   1 Cu     1.465128    1.886025   10.519315    ( 0.0000,  0.0000,  0.0000)
   2 Cu     7.192289    2.103647   10.818751    ( 0.0000,  0.0000,  0.0000)
   3 Cu     8.352212    0.084701    9.924284    ( 0.0000,  0.0000,  0.0000)
   4 Cu    11.250917    0.004643   11.089772    ( 0.0000,  0.0000,  0.0000)
   5 Cu     9.539037    1.865155   11.816020    ( 0.0000,  0.0000,  0.0000)
   6 Cu     3.747675    1.778226   11.821482    ( 0.0000,  0.0000,  0.0000)
   7 Cu     5.673127    0.041748   11.373651    ( 0.0000,  0.0000,  0.0000)
   8 Cu     7.882272    0.020489   12.461159    ( 0.0000,  0.0000,  0.0000)
   9 Cu     6.092365    1.900565   13.128999    ( 0.0000,  0.0000,  0.0000)
  10 Cu     0.252107    1.862355   12.852760    ( 0.0000,  0.0000,  0.0000)
  11 Cu     1.956962    0.015058   12.291864    ( 0.0000,  0.0000,  0.0000)
  12 Cu     4.342192    0.017559   13.573268    ( 0.0000,  0.0000,  0.0000)
  13 Cu     2.580374    1.855648   14.036916    ( 0.0000,  0.0000,  0.0000)
  14 Cu     8.446152    1.857686   14.177863    ( 0.0000,  0.0000,  0.0000)
  15 Cu    10.248307    0.026414   13.489702    ( 0.0000,  0.0000,  0.0000)
  16 Cu     0.855122    0.009882   14.642543    ( 0.0000,  0.0000,  0.0000)
  17 Cu    10.824039    1.878090   15.225748    ( 0.0000,  0.0000,  0.0000)
  18 Cu     4.890700    1.855293   15.363905    ( 0.0000,  0.0000,  0.0000)
  19 Cu     6.640453   -0.006488   14.765499    ( 0.0000,  0.0000,  0.0000)
  20 Cu     9.049911    0.019323   15.845113    ( 0.0000,  0.0000,  0.0000)
  21 Cu     7.251209    1.843115   16.461628    ( 0.0000,  0.0000,  0.0000)
  22 Cu     1.454450    1.845471   16.337526    ( 0.0000,  0.0000,  0.0000)
  23 Cu     3.180683    0.000498   15.824228    ( 0.0000,  0.0000,  0.0000)
  24 Cu     5.488759   -0.002625   17.095335    ( 0.0000,  0.0000,  0.0000)
  25 Cu     3.752808    1.825661   17.610824    ( 0.0000,  0.0000,  0.0000)
  26 Cu     9.606249    1.844048   17.534049    ( 0.0000,  0.0000,  0.0000)
  27 Cu    11.392863   -0.006673   16.931561    ( 0.0000,  0.0000,  0.0000)
  28 Cu     2.038924   -0.023624   18.081024    ( 0.0000,  0.0000,  0.0000)
  29 Cu     0.287283    1.832385   18.609522    ( 0.0000,  0.0000,  0.0000)
  30 Cu     6.069528    1.835823   18.790677    ( 0.0000,  0.0000,  0.0000)
  31 Cu     7.828097   -0.017844   18.158803    ( 0.0000,  0.0000,  0.0000)
  32 Cu    10.191380   -0.029144   19.173007    ( 0.0000,  0.0000,  0.0000)
  33 Cu     8.371926    1.838662   19.849767    ( 0.0000,  0.0000,  0.0000)
  34 Cu     2.638359    1.802285   19.874513    ( 0.0000,  0.0000,  0.0000)
  35 Cu     4.343305   -0.043433   19.408017    ( 0.0000,  0.0000,  0.0000)
  36 Cu     6.644025   -0.033106   20.551132    ( 0.0000,  0.0000,  0.0000)
  37 Cu     4.908277    1.821910   21.161022    ( 0.0000,  0.0000,  0.0000)
  38 Cu    10.760310    1.791945   20.845423    ( 0.0000,  0.0000,  0.0000)
  39 Cu     0.876410   -0.039562   20.310774    ( 0.0000,  0.0000,  0.0000)
  40 Cu     3.180046   -0.086794   21.672934    ( 0.0000,  0.0000,  0.0000)
  41 Cu     1.391561    1.754564   22.042101    ( 0.0000,  0.0000,  0.0000)
  42 Cu     7.235523    1.861002   22.235908    ( 0.0000,  0.0000,  0.0000)
  43 Cu     9.069780    0.005441   21.473519    ( 0.0000,  0.0000,  0.0000)
  44 Cu    11.405193   -0.059257   22.572636    ( 0.0000,  0.0000,  0.0000)
  45 Cu     9.851037    1.728034   23.389532    ( 0.0000,  0.0000,  0.0000)
  46 Cu     3.891362    2.285379   25.316008    ( 0.0000,  0.0000,  0.0000)
  47 Cu     5.383416   -0.233754   22.961680    ( 0.0000,  0.0000,  0.0000)
  48 Cu     3.222988    3.510431    9.123777    ( 0.0000,  0.0000,  0.0000)
  49 Cu     1.537746    5.511764   10.447755    ( 0.0000,  0.0000,  0.0000)
  50 Cu     7.133692    5.353078   10.633376    ( 0.0000,  0.0000,  0.0000)
  51 Cu     9.065354    3.739750   10.054605    ( 0.0000,  0.0000,  0.0000)
  52 Cu    11.343978    3.731570   11.211890    ( 0.0000,  0.0000,  0.0000)
  53 Cu     9.517284    5.601523   11.787488    ( 0.0000,  0.0000,  0.0000)
  54 Cu     3.765150    5.704114   11.737943    ( 0.0000,  0.0000,  0.0000)
  55 Cu     5.328362    3.795178   11.389839    ( 0.0000,  0.0000,  0.0000)
  56 Cu     7.845476    3.771464   12.550646    ( 0.0000,  0.0000,  0.0000)
  57 Cu     6.071868    5.544149   13.055698    ( 0.0000,  0.0000,  0.0000)
  58 Cu     0.253131    5.582799   12.841076    ( 0.0000,  0.0000,  0.0000)
  59 Cu     2.104535    3.721039   12.243110    ( 0.0000,  0.0000,  0.0000)
  60 Cu     4.310527    3.729504   13.627625    ( 0.0000,  0.0000,  0.0000)
  61 Cu     2.582834    5.582421   14.019528    ( 0.0000,  0.0000,  0.0000)
  62 Cu     8.452687    5.609774   14.184638    ( 0.0000,  0.0000,  0.0000)
  63 Cu    10.244856    3.735850   13.471232    ( 0.0000,  0.0000,  0.0000)
  64 Cu     0.880062    3.724732   14.607857    ( 0.0000,  0.0000,  0.0000)
  65 Cu    10.816119    5.562619   15.227738    ( 0.0000,  0.0000,  0.0000)
  66 Cu     4.893269    5.572539   15.358012    ( 0.0000,  0.0000,  0.0000)
  67 Cu     6.649019    3.726062   14.821951    ( 0.0000,  0.0000,  0.0000)
  68 Cu     9.049292    3.714558   15.810096    ( 0.0000,  0.0000,  0.0000)
  69 Cu     7.250440    5.558562   16.467846    ( 0.0000,  0.0000,  0.0000)
  70 Cu     1.455058    5.549555   16.337069    ( 0.0000,  0.0000,  0.0000)
  71 Cu     3.169709    3.710525   15.843670    ( 0.0000,  0.0000,  0.0000)
  72 Cu     5.483451    3.702144   17.090257    ( 0.0000,  0.0000,  0.0000)
  73 Cu     3.752811    5.541450   17.623284    ( 0.0000,  0.0000,  0.0000)
  74 Cu     9.600560    5.534049   17.533378    ( 0.0000,  0.0000,  0.0000)
  75 Cu    11.396212    3.700112   16.925289    ( 0.0000,  0.0000,  0.0000)
  76 Cu     2.035696    3.673786   18.085814    ( 0.0000,  0.0000,  0.0000)
  77 Cu     0.298974    5.535450   18.603264    ( 0.0000,  0.0000,  0.0000)
  78 Cu     6.067733    5.531872   18.798769    ( 0.0000,  0.0000,  0.0000)
  79 Cu     7.827419    3.687281   18.154365    ( 0.0000,  0.0000,  0.0000)
  80 Cu    10.199358    3.676876   19.197043    ( 0.0000,  0.0000,  0.0000)
  81 Cu     8.394122    5.521187   19.862755    ( 0.0000,  0.0000,  0.0000)
  82 Cu     2.620849    5.502106   19.889854    ( 0.0000,  0.0000,  0.0000)
  83 Cu     4.336331    3.670111   19.383407    ( 0.0000,  0.0000,  0.0000)
  84 Cu     6.624041    3.685092   20.561867    ( 0.0000,  0.0000,  0.0000)
  85 Cu     4.916212    5.466065   21.202241    ( 0.0000,  0.0000,  0.0000)
  86 Cu    10.788610    5.511038   20.862278    ( 0.0000,  0.0000,  0.0000)
  87 Cu     0.901839    3.668586   20.306447    ( 0.0000,  0.0000,  0.0000)
  88 Cu     3.197216    3.645493   21.691349    ( 0.0000,  0.0000,  0.0000)
  89 Cu     1.339889    5.467166   22.105799    ( 0.0000,  0.0000,  0.0000)
  90 Cu     7.267336    5.495881   22.263051    ( 0.0000,  0.0000,  0.0000)
  91 Cu     9.015617    3.658136   21.510458    ( 0.0000,  0.0000,  0.0000)
  92 Cu    11.355433    3.547556   22.478535    ( 0.0000,  0.0000,  0.0000)
  93 Cu    10.009208    5.389661   23.332695    ( 0.0000,  0.0000,  0.0000)
  94 Cu     3.936192    5.702615   24.888293    ( 0.0000,  0.0000,  0.0000)
  95 Cu     5.413596    3.804294   23.130241    ( 0.0000,  0.0000,  0.0000)
  96 Cl    10.411770    4.986491   25.954564    ( 0.0000,  0.0000,  0.0000)
  97 Cl     6.100862    5.406509   25.093013    ( 0.0000,  0.0000,  0.0000)
  98 Cl     3.266908    4.157485   26.477514    ( 0.0000,  0.0000,  0.0000)
  99 Cl     3.212017    0.532618   26.620436    ( 0.0000,  0.0000,  0.0000)
 100 Cl     5.822834    1.618746   24.332429    ( 0.0000,  0.0000,  0.0000)
 101 Cl    10.369372    1.579408   25.855001    ( 0.0000,  0.0000,  0.0000)
 102 Cl    12.138088    5.340895   27.063573    ( 0.0000,  0.0000,  0.0000)
 103 Cl    12.353379    1.118858   26.519723    ( 0.0000,  0.0000,  0.0000)
 104 Cl     7.194477    3.822790    8.642760    ( 0.0000,  0.0000,  0.0000)
 105 Cl     7.189040    0.243586    6.867326    ( 0.0000,  0.0000,  0.0000)
 106 Cl     3.159186    1.761965    7.451417    ( 0.0000,  0.0000,  0.0000)
 107 Cl     3.234231    5.116333    7.517489    ( 0.0000,  0.0000,  0.0000)
 108 Cl     0.907479   -0.025166    9.136623    ( 0.0000,  0.0000,  0.0000)
 109 Cl     0.622153    3.677565    9.107990    ( 0.0000,  0.0000,  0.0000)
 110 Cl     8.702453    0.926606    5.723478    ( 0.0000,  0.0000,  0.0000)
 111 Cl     9.983357    4.277080    6.051035    ( 0.0000,  0.0000,  0.0000)
 112 Cl     8.472510   -0.315045   23.881996    ( 0.0000,  0.0000,  0.0000)
 113 Cl     5.542811    6.511143    9.271901    ( 0.0000,  0.0000,  0.0000)
 114 Cl     8.499650    3.536148   24.115318    ( 0.0000,  0.0000,  0.0000)
 115 Cl    13.530716   -0.439611   23.858581    ( 0.0000,  0.0000,  0.0000)
 116 Cl    13.263442    3.326769   23.787165    ( 0.0000,  0.0000,  0.0000)
 117 Cl     5.011832    2.109491    9.844266    ( 0.0000,  0.0000,  0.0000)
 118 Cl     9.738144    5.804045    9.169622    ( 0.0000,  0.0000,  0.0000)
 119 Cl     9.790294    1.715892    9.135524    ( 0.0000,  0.0000,  0.0000)

Unit cell:
           periodic     x           y           z      points  spacing
  1. axis:    yes   11.703590    0.000000    0.000000    70     0.1672
  2. axis:    yes    0.000000    7.402000    0.000000    42     0.1762
  3. axis:    no     0.000000    0.000000   33.459128   192     0.1743

  Lengths:  11.703590   7.402000  33.459128
  Angles:   90.000000  90.000000  90.000000

Effective grid spacing dv^(1/3) = 0.1725

     iter     time        total  log10-change:
                         energy  eigst   dens
iter:   1 22:06:53 -10434.117014
iter:   2 22:11:30 -15301.110150  +2.39  -0.52
iter:   3 22:16:05 -8019.862710  +2.25  -0.33
iter:   4 22:20:43 -8299.450698  +0.72  -1.10
iter:   5 22:25:21 -8867.360489  +0.50  -1.22
iter:   6 22:29:59 -8202.056950  -0.88  -0.84
iter:   7 22:34:37 -8192.951774  -1.61  -1.37
iter:   8 22:39:16 -8170.694959  -1.47  -1.36
iter:   9 22:43:54 -8154.807790  -1.78  -1.53
iter:  10 22:48:34 -8150.206968  -2.17  -1.56
iter:  11 22:53:14 -8159.852781  -1.35  -1.60
iter:  12 22:57:54 -8151.316474  -2.48  -1.64
iter:  13 23:02:34 -8170.834274  -1.86  -1.72
iter:  14 23:07:15 -8143.841800  -2.22  -1.55
iter:  15 23:11:57 -8145.062662  -2.09  -1.79
iter:  16 23:16:40 -8145.049540  -2.20  -1.86
iter:  17 23:21:21 -8145.561001c -3.06  -1.81
iter:  18 23:26:02 -8144.108502  -2.53  -1.82
iter:  19 23:30:44 -8148.584059  -2.26  -1.75
iter:  20 23:35:24 -8144.802378  -2.34  -1.84
iter:  21 23:40:05 -8177.129756  -1.66  -1.87
iter:  22 23:44:45 -8151.572996  -1.69  -1.64
iter:  23 23:49:24 -8146.764667  -2.53  -1.90
iter:  24 23:54:06 -8142.117108  -2.63  -2.03
iter:  25 23:58:49 -8141.622924  -3.19  -2.25
iter:  26 00:03:29 -8141.529030c -4.25  -2.11
iter:  27 00:08:09 -8140.159377  -3.24  -2.14
iter:  28 00:12:53 -8139.125139  -2.77  -2.32
iter:  29 00:17:37 -8139.184137  -3.31  -2.39
iter:  30 00:22:21 -8138.836872c -3.27  -2.40
iter:  31 00:27:05 -8138.707122c -4.19  -2.44
iter:  32 00:31:47 -8138.656984c -3.54  -2.50
iter:  33 00:36:28 -8138.709024c -3.83  -2.59
iter:  34 00:41:10 -8138.682828c -3.77  -2.58
iter:  35 00:45:52 -8138.705027c -4.47  -2.52
iter:  36 00:50:34 -8138.526296c -4.61  -2.53
iter:  37 00:55:16 -8138.493750c -4.38  -2.71
iter:  38 01:00:03 -8138.498254c -4.96  -2.82
iter:  39 01:04:49 -8138.489453c -5.08  -2.90
iter:  40 01:09:35 -8138.494271c -4.87  -3.04
iter:  41 01:14:21 -8138.491838c -5.51  -3.02
iter:  42 01:19:06 -8138.508449c -5.47  -3.13
iter:  43 01:23:50 -8138.506602c -5.19  -3.23
iter:  44 01:28:35 -8138.499486c -4.93  -3.23
iter:  45 01:33:19 -8138.502679c -5.94  -3.49
iter:  46 01:38:02 -8138.507202c -6.02  -3.68
iter:  47 01:42:43 -8138.502336c -6.24  -3.72
iter:  48 01:47:24 -8138.501396c -6.38  -3.88
iter:  49 01:52:05 -8138.502143c -7.32  -3.82
iter:  50 01:56:46 -8138.504033c -7.11  -3.91
iter:  51 02:01:27 -8138.504204c -6.95  -3.97
iter:  52 02:06:10 -8138.505559c -6.65  -4.08c
iter:  53 02:10:56 -8138.504887c -7.39  -4.16c
iter:  54 02:15:42 -8138.502629c -7.29  -4.27c
iter:  55 02:20:29 -8138.504746c -7.61c -4.35c

Converged after 55 iterations.

Dipole moment: (-19.656053, 19.600156, 1.049743) |e|*Ang

Energy contributions relative to reference atoms: (reference = -4623378.162245)

Kinetic:       +975.885595
Potential:     -1011.809408
External:        +0.000000
XC:            -8100.781809
Entropy (-ST):   -1.253797
Local:           -1.172225
--------------------------
Free energy:   -8139.131644
Extrapolated:  -8138.504746

Showing only first 2 kpts
 Kpt  Band  Eigenvalues  Occupancy
  0   610      0.61544    1.31076
  0   611      0.75237    0.65194
  0   612      0.79772    0.47010
  0   613      0.83167    0.35907

  1   610      0.47516    1.77100
  1   611      0.51195    1.68520
  1   612      0.52386    1.65232
  1   613      0.56678    1.51145


Fermi level: 0.67972

No gap

Forces in eV/Ang:
  0 Cu    0.07543    0.13891   -0.37926
  1 Cu    0.01890   -0.02483    0.06132
  2 Cu    0.18225    0.04410   -0.11817
  3 Cu    0.07685   -0.01874    0.08908
  4 Cu   -0.02458    0.01894    0.09752
  5 Cu    0.07573    0.03121   -0.10209
  6 Cu   -0.23771   -0.03144    0.05244
  7 Cu   -0.05245   -0.08240    0.04921
  8 Cu   -0.10160    0.03352   -0.00856
  9 Cu    0.03047   -0.08490   -0.14109
 10 Cu    0.08318   -0.01407    0.03118
 11 Cu    0.03400   -0.00438   -0.09467
 12 Cu    0.01979   -0.00318   -0.06511
 13 Cu    0.01880    0.02355    0.00489
 14 Cu    0.05453    0.01866   -0.11188
 15 Cu   -0.04300   -0.03838   -0.03325
 16 Cu   -0.01652   -0.01177   -0.04135
 17 Cu   -0.03405   -0.04568   -0.08056
 18 Cu    0.04770    0.00359   -0.14966
 19 Cu    0.08921    0.02522    0.03744
 20 Cu   -0.04038   -0.02973   -0.00560
 21 Cu   -0.00202   -0.00423    0.00298
 22 Cu   -0.00721    0.01583    0.00474
 23 Cu   -0.01573   -0.01772    0.00214
 24 Cu   -0.01932   -0.01477   -0.05798
 25 Cu   -0.00863    0.03123   -0.01144
 26 Cu    0.02179    0.05723    0.01085
 27 Cu    0.01500    0.03286   -0.04357
 28 Cu   -0.00012    0.01957    0.06424
 29 Cu    0.00203    0.01045    0.05080
 30 Cu   -0.05082   -0.00470    0.01185
 31 Cu   -0.01132    0.01430    0.10084
 32 Cu    0.00031   -0.04335    0.11194
 33 Cu    0.02946   -0.03690    0.10558
 34 Cu   -0.08521   -0.00235    0.05418
 35 Cu   -0.03336    0.00286    0.00423
 36 Cu   -0.03479   -0.00555    0.06551
 37 Cu   -0.08089   -0.04127    0.07777
 38 Cu    0.06431   -0.08855    0.17207
 39 Cu   -0.05805    0.00717    0.11047
 40 Cu   -0.02675    0.05814    0.01070
 41 Cu    0.07752   -0.05765    0.02838
 42 Cu    0.08842   -0.02238   -0.12380
 43 Cu   -0.01903   -0.09011    0.18833
 44 Cu   -0.02243    0.10543   -0.04961
 45 Cu    0.04915    0.00593   -0.03974
 46 Cu   -0.18399    0.36127    0.57821
 47 Cu    0.03226   -0.04330   -0.01936
 48 Cu   -0.11571   -0.01570   -0.09143
 49 Cu    0.10202   -0.04146    0.20151
 50 Cu    0.02077   -0.08983   -0.01725
 51 Cu   -0.18572   -0.11355   -0.08249
 52 Cu   -0.01073   -0.01160    0.14496
 53 Cu    0.11192   -0.02863   -0.05080
 54 Cu   -0.11745   -0.10898    0.05260
 55 Cu    0.02090    0.12759    0.08521
 56 Cu    0.01399    0.00396   -0.13350
 57 Cu    0.04721    0.05775   -0.12005
 58 Cu    0.08706   -0.00247    0.01741
 59 Cu   -0.04360    0.09634   -0.06678
 60 Cu    0.02542   -0.00286   -0.10930
 61 Cu   -0.00032   -0.01897    0.04269
 62 Cu    0.03006   -0.07035   -0.10458
 63 Cu   -0.10350   -0.01181    0.06850
 64 Cu   -0.06884   -0.04246   -0.08083
 65 Cu    0.00419   -0.02024   -0.06144
 66 Cu    0.04538   -0.02593   -0.10545
 67 Cu    0.04930   -0.00463   -0.08025
 68 Cu   -0.05044   -0.02988    0.07032
 69 Cu    0.00495    0.00666    0.00766
 70 Cu    0.01620   -0.01323    0.00060
 71 Cu    0.02279   -0.00965   -0.04514
 72 Cu   -0.03257   -0.02368   -0.00922
 73 Cu   -0.00921   -0.00310   -0.01606
 74 Cu    0.04345   -0.01514   -0.00612
 75 Cu    0.01058    0.00691   -0.01635
 76 Cu    0.02971    0.01834    0.01006
 77 Cu   -0.06852   -0.00879    0.07575
 78 Cu   -0.01205   -0.00428   -0.04033
 79 Cu    0.00125    0.02187    0.03489
 80 Cu    0.00566   -0.01041    0.08404
 81 Cu    0.02850    0.01586    0.06860
 82 Cu   -0.05947    0.02295    0.04325
 83 Cu   -0.06239    0.00496    0.02862
 84 Cu    0.02378   -0.00728    0.03140
 85 Cu   -0.07664    0.02701   -0.04673
 86 Cu   -0.03600   -0.05001    0.16515
 87 Cu   -0.10883    0.01489    0.00940
 88 Cu    0.00653    0.03067    0.02433
 89 Cu    0.02805   -0.16376   -0.02652
 90 Cu    0.07909    0.01761   -0.06640
 91 Cu    0.16443   -0.02816    0.09601
 92 Cu   -0.05459    0.13359    0.08334
 93 Cu   -0.13603    0.00893    0.02919
 94 Cu   -0.53835    0.25112    0.16861
 95 Cu    0.01045    0.11986   -0.10837
 96 Cl    0.50022    0.30961    0.36696
 97 Cl    0.01618   -0.04004   -0.51451
 98 Cl    0.21903   -0.16933   -0.14950
 99 Cl    0.09820   -0.18806    0.11907
100 Cl   -0.06447    0.10605    0.12239
101 Cl   -0.04645   -0.12545    0.16192
102 Cl   -0.68954   -0.38623   -0.24067
103 Cl    0.25081    0.33634   -0.24052
104 Cl    0.06184   -0.01256    0.12072
105 Cl    0.06680   -0.01991   -0.05200
106 Cl   -0.07044   -0.10522   -0.17941
107 Cl   -0.00188   -0.09313   -0.20750
108 Cl    0.06180    0.04005   -0.01858
109 Cl    0.20845    0.02946   -0.10433
110 Cl   -0.01474    0.01692   -0.02546
111 Cl    0.06099    0.02058    0.04691
112 Cl   -0.05316    0.11077    0.25555
113 Cl   -0.17241    0.01239   -0.15322
114 Cl   -0.04135   -0.00166   -0.01616
115 Cl    0.29005   -0.12595   -0.02766
116 Cl    0.30651   -0.00905    0.21199
117 Cl   -0.38361    0.05593   -0.09904
118 Cl    0.23066    0.07507    0.00062
119 Cl    0.04433   -0.05534   -0.00186

System changes: positions 

Initializing position-dependent things.

Density initialized from wave functions
      .----------------------------.  
     /|                            |  
    / |                            |  
   /  |                            |  
  /   |                            |  
 *    |                            |  
 |    |                            |  
 |    |                            |  
 |    |                            |  
 |   Cl                            |  
 |    |                            |  
 |    |     Cl                Cl   |  
 |    |   Cl  Cu    Cl     Cl      |  
 | Cl |  Cl Cu     Cu       Cl    Cu  
 |    |       Cu        Cl   Cu    |  
 |    |Clu       Cl    Cu   Cu     |  
 |    | Cu       Cu   Cu   Cu   Cu |  
 |    |    Cu    Cu       Cu   Cu  |  
 |    Cu   Cu       Cu    Cu   Cu  |  
 |   CCu   Cu Cu    Cu   Cu  Cu    |  
 |    |  Cu   Cu    Cu Cu    Cu   Cu  
 |    |  Cu   Cu       Cu    Cu    |  
 | Cu | Cu    Cu Cu    Cu          |  
 |    |     Cu   Cu   Cu  Cu    Cu |  
 |    |    Cu             Cu    Cu |  
 |    Cu   Cu       Cu    Cu       |  
 |   CCu      Cu    Cu       Cu    |  
 |    |       Cu       Cu    Cu    |  
 | Cu |  Cu   Cu       Cu   Cu     |  
 | Cu |  Cu Cu   Cu   Cu  Cu       |  
 |    | Cl Cu      Cl     Cu    Cu |  
 |    Cu      Cu    CCu   Cu Cl    |  
 |   CCu   Cu  Cu            Cu    |  
 |    |     Cl Cl    Cl            |  
 |    |               Cu  Cl       |  
 |    |                            |  
 |    |   Cl                 Cl    |  
 |    |            Cl              |  
 |    |                Cl          |  
 |    |                            |  
 |    |                            |  
 |    .----------------------------.  
 |   /                            /   
 |  /                            /    
 | /                            /     
 |/                            /      
 *----------------------------*       

Positions:
   0 Cu     3.309074   -0.250808    8.373087    ( 0.0000,  0.0000,  0.0000)
   1 Cu     1.467018    1.883542   10.525447    ( 0.0000,  0.0000,  0.0000)
   2 Cu     7.210514    2.108057   10.806934    ( 0.0000,  0.0000,  0.0000)
   3 Cu     8.359897    0.082827    9.933192    ( 0.0000,  0.0000,  0.0000)
   4 Cu    11.248459    0.006537   11.099524    ( 0.0000,  0.0000,  0.0000)
   5 Cu     9.546610    1.868276   11.805811    ( 0.0000,  0.0000,  0.0000)
   6 Cu     3.723904    1.775082   11.826726    ( 0.0000,  0.0000,  0.0000)
   7 Cu     5.667882    0.033508   11.378572    ( 0.0000,  0.0000,  0.0000)
   8 Cu     7.872112    0.023841   12.460303    ( 0.0000,  0.0000,  0.0000)
   9 Cu     6.095412    1.892075   13.114890    ( 0.0000,  0.0000,  0.0000)
  10 Cu     0.260425    1.860948   12.855878    ( 0.0000,  0.0000,  0.0000)
  11 Cu     1.960362    0.014620   12.282397    ( 0.0000,  0.0000,  0.0000)
  12 Cu     4.344171    0.017241   13.566757    ( 0.0000,  0.0000,  0.0000)
  13 Cu     2.582254    1.858003   14.037405    ( 0.0000,  0.0000,  0.0000)
  14 Cu     8.451605    1.859552   14.166675    ( 0.0000,  0.0000,  0.0000)
  15 Cu    10.244007    0.022576   13.486377    ( 0.0000,  0.0000,  0.0000)
  16 Cu     0.853470    0.008705   14.638408    ( 0.0000,  0.0000,  0.0000)
  17 Cu    10.820634    1.873522   15.217692    ( 0.0000,  0.0000,  0.0000)
  18 Cu     4.895470    1.855652   15.348939    ( 0.0000,  0.0000,  0.0000)
  19 Cu     6.649374   -0.003966   14.769243    ( 0.0000,  0.0000,  0.0000)
  20 Cu     9.045873    0.016350   15.844553    ( 0.0000,  0.0000,  0.0000)
  21 Cu     7.251007    1.842692   16.461926    ( 0.0000,  0.0000,  0.0000)
  22 Cu     1.453729    1.847054   16.338000    ( 0.0000,  0.0000,  0.0000)
  23 Cu     3.179110   -0.001274   15.824442    ( 0.0000,  0.0000,  0.0000)
  24 Cu     5.486827   -0.004102   17.089537    ( 0.0000,  0.0000,  0.0000)
  25 Cu     3.751945    1.828784   17.609680    ( 0.0000,  0.0000,  0.0000)
  26 Cu     9.608428    1.849771   17.535134    ( 0.0000,  0.0000,  0.0000)
  27 Cu    11.394363   -0.003387   16.927204    ( 0.0000,  0.0000,  0.0000)
  28 Cu     2.038912   -0.021667   18.087448    ( 0.0000,  0.0000,  0.0000)
  29 Cu     0.287486    1.833430   18.614602    ( 0.0000,  0.0000,  0.0000)
  30 Cu     6.064446    1.835353   18.791862    ( 0.0000,  0.0000,  0.0000)
  31 Cu     7.826965   -0.016414   18.168887    ( 0.0000,  0.0000,  0.0000)
  32 Cu    10.191411   -0.033479   19.184201    ( 0.0000,  0.0000,  0.0000)
  33 Cu     8.374872    1.834972   19.860325    ( 0.0000,  0.0000,  0.0000)
  34 Cu     2.629838    1.802050   19.879931    ( 0.0000,  0.0000,  0.0000)
  35 Cu     4.339969   -0.043147   19.408440    ( 0.0000,  0.0000,  0.0000)
  36 Cu     6.640546   -0.033661   20.557683    ( 0.0000,  0.0000,  0.0000)
  37 Cu     4.900188    1.817783   21.168799    ( 0.0000,  0.0000,  0.0000)
  38 Cu    10.766741    1.783090   20.862630    ( 0.0000,  0.0000,  0.0000)
  39 Cu     0.870605   -0.038845   20.321821    ( 0.0000,  0.0000,  0.0000)
  40 Cu     3.177371   -0.080980   21.674004    ( 0.0000,  0.0000,  0.0000)
  41 Cu     1.399313    1.748799   22.044939    ( 0.0000,  0.0000,  0.0000)
  42 Cu     7.244365    1.858764   22.223528    ( 0.0000,  0.0000,  0.0000)
  43 Cu     9.067877   -0.003570   21.492352    ( 0.0000,  0.0000,  0.0000)
  44 Cu    11.402950   -0.048714   22.567675    ( 0.0000,  0.0000,  0.0000)
  45 Cu     9.855952    1.728627   23.385558    ( 0.0000,  0.0000,  0.0000)
  46 Cu     3.872963    2.321506   25.373829    ( 0.0000,  0.0000,  0.0000)
  47 Cu     5.386642   -0.238084   22.959744    ( 0.0000,  0.0000,  0.0000)
  48 Cu     3.211417    3.508861    9.114634    ( 0.0000,  0.0000,  0.0000)
  49 Cu     1.547948    5.507618   10.467906    ( 0.0000,  0.0000,  0.0000)
  50 Cu     7.135769    5.344095   10.631651    ( 0.0000,  0.0000,  0.0000)
  51 Cu     9.046782    3.728395   10.046356    ( 0.0000,  0.0000,  0.0000)
  52 Cu    11.342905    3.730410   11.226386    ( 0.0000,  0.0000,  0.0000)
  53 Cu     9.528476    5.598660   11.782408    ( 0.0000,  0.0000,  0.0000)
  54 Cu     3.753405    5.693216   11.743203    ( 0.0000,  0.0000,  0.0000)
  55 Cu     5.330452    3.807937   11.398360    ( 0.0000,  0.0000,  0.0000)
  56 Cu     7.846875    3.771860   12.537296    ( 0.0000,  0.0000,  0.0000)
  57 Cu     6.076589    5.549924   13.043693    ( 0.0000,  0.0000,  0.0000)
  58 Cu     0.261837    5.582552   12.842817    ( 0.0000,  0.0000,  0.0000)
  59 Cu     2.100175    3.730673   12.236432    ( 0.0000,  0.0000,  0.0000)
  60 Cu     4.313069    3.729218   13.616695    ( 0.0000,  0.0000,  0.0000)
  61 Cu     2.582802    5.580524   14.023797    ( 0.0000,  0.0000,  0.0000)
  62 Cu     8.455693    5.602739   14.174180    ( 0.0000,  0.0000,  0.0000)
  63 Cu    10.234506    3.734669   13.478082    ( 0.0000,  0.0000,  0.0000)
  64 Cu     0.873178    3.720486   14.599774    ( 0.0000,  0.0000,  0.0000)
  65 Cu    10.816538    5.560595   15.221594    ( 0.0000,  0.0000,  0.0000)
  66 Cu     4.897807    5.569946   15.347467    ( 0.0000,  0.0000,  0.0000)
  67 Cu     6.653949    3.725599   14.813926    ( 0.0000,  0.0000,  0.0000)
  68 Cu     9.044248    3.711570   15.817128    ( 0.0000,  0.0000,  0.0000)
  69 Cu     7.250935    5.559228   16.468612    ( 0.0000,  0.0000,  0.0000)
  70 Cu     1.456678    5.548232   16.337129    ( 0.0000,  0.0000,  0.0000)
  71 Cu     3.171988    3.709560   15.839156    ( 0.0000,  0.0000,  0.0000)
  72 Cu     5.480194    3.699776   17.089335    ( 0.0000,  0.0000,  0.0000)
  73 Cu     3.751890    5.541140   17.621678    ( 0.0000,  0.0000,  0.0000)
  74 Cu     9.604905    5.532535   17.532766    ( 0.0000,  0.0000,  0.0000)
  75 Cu    11.397270    3.700803   16.923654    ( 0.0000,  0.0000,  0.0000)
  76 Cu     2.038667    3.675620   18.086820    ( 0.0000,  0.0000,  0.0000)
  77 Cu     0.292122    5.534571   18.610839    ( 0.0000,  0.0000,  0.0000)
  78 Cu     6.066528    5.531444   18.794736    ( 0.0000,  0.0000,  0.0000)
  79 Cu     7.827544    3.689468   18.157854    ( 0.0000,  0.0000,  0.0000)
  80 Cu    10.199924    3.675835   19.205447    ( 0.0000,  0.0000,  0.0000)
  81 Cu     8.396972    5.522773   19.869615    ( 0.0000,  0.0000,  0.0000)
  82 Cu     2.614902    5.504401   19.894179    ( 0.0000,  0.0000,  0.0000)
  83 Cu     4.330092    3.670607   19.386269    ( 0.0000,  0.0000,  0.0000)
  84 Cu     6.626419    3.684364   20.565007    ( 0.0000,  0.0000,  0.0000)
  85 Cu     4.908548    5.468766   21.197568    ( 0.0000,  0.0000,  0.0000)
  86 Cu    10.785010    5.506037   20.878793    ( 0.0000,  0.0000,  0.0000)
  87 Cu     0.890956    3.670075   20.307387    ( 0.0000,  0.0000,  0.0000)
  88 Cu     3.197869    3.648560   21.693782    ( 0.0000,  0.0000,  0.0000)
  89 Cu     1.342694    5.450790   22.103147    ( 0.0000,  0.0000,  0.0000)
  90 Cu     7.275245    5.497642   22.256411    ( 0.0000,  0.0000,  0.0000)
  91 Cu     9.032060    3.655320   21.520059    ( 0.0000,  0.0000,  0.0000)
  92 Cu    11.349974    3.560915   22.486869    ( 0.0000,  0.0000,  0.0000)
  93 Cu     9.995605    5.390554   23.335614    ( 0.0000,  0.0000,  0.0000)
  94 Cu     3.882357    5.727727   24.905154    ( 0.0000,  0.0000,  0.0000)
  95 Cu     5.414641    3.816280   23.119404    ( 0.0000,  0.0000,  0.0000)
  96 Cl    10.461792    5.017452   25.991260    ( 0.0000,  0.0000,  0.0000)
  97 Cl     6.102480    5.402505   25.041562    ( 0.0000,  0.0000,  0.0000)
  98 Cl     3.288811    4.140552   26.462564    ( 0.0000,  0.0000,  0.0000)
  99 Cl     3.221837    0.513812   26.632343    ( 0.0000,  0.0000,  0.0000)
 100 Cl     5.816387    1.629351   24.344668    ( 0.0000,  0.0000,  0.0000)
 101 Cl    10.364727    1.566863   25.871193    ( 0.0000,  0.0000,  0.0000)
 102 Cl    12.069134    5.302272   27.039506    ( 0.0000,  0.0000,  0.0000)
 103 Cl    12.378460    1.152492   26.495671    ( 0.0000,  0.0000,  0.0000)
 104 Cl     7.200661    3.821534    8.654832    ( 0.0000,  0.0000,  0.0000)
 105 Cl     7.195720    0.241595    6.862126    ( 0.0000,  0.0000,  0.0000)
 106 Cl     3.152142    1.751443    7.433476    ( 0.0000,  0.0000,  0.0000)
 107 Cl     3.234043    5.107020    7.496739    ( 0.0000,  0.0000,  0.0000)
 108 Cl     0.913659   -0.021161    9.134765    ( 0.0000,  0.0000,  0.0000)
 109 Cl     0.642998    3.680511    9.097557    ( 0.0000,  0.0000,  0.0000)
 110 Cl     8.700979    0.928298    5.720932    ( 0.0000,  0.0000,  0.0000)
 111 Cl     9.989456    4.279138    6.055726    ( 0.0000,  0.0000,  0.0000)
 112 Cl     8.467194   -0.303968   23.907551    ( 0.0000,  0.0000,  0.0000)
 113 Cl     5.525570    6.512382    9.256579    ( 0.0000,  0.0000,  0.0000)
 114 Cl     8.495515    3.535982   24.113702    ( 0.0000,  0.0000,  0.0000)
 115 Cl    13.559721   -0.452206   23.855815    ( 0.0000,  0.0000,  0.0000)
 116 Cl    13.294093    3.325864   23.808364    ( 0.0000,  0.0000,  0.0000)
 117 Cl     4.973471    2.115084    9.834362    ( 0.0000,  0.0000,  0.0000)
 118 Cl     9.761210    5.811552    9.169684    ( 0.0000,  0.0000,  0.0000)
 119 Cl     9.794727    1.710358    9.135338    ( 0.0000,  0.0000,  0.0000)

Unit cell:
           periodic     x           y           z      points  spacing
  1. axis:    yes   11.703590    0.000000    0.000000    70     0.1672
  2. axis:    yes    0.000000    7.402000    0.000000    42     0.1762
  3. axis:    no     0.000000    0.000000   33.459128   192     0.1743

  Lengths:  11.703590   7.402000  33.459128
  Angles:   90.000000  90.000000  90.000000

Effective grid spacing dv^(1/3) = 0.1725

     iter     time        total  log10-change:
                         energy  eigst   dens
iter:   1 02:28:11 -8142.833142  -2.15
iter:   2 02:32:49 -8149.257063  -1.84  -1.98
iter:   3 02:37:27 -8141.919978  -2.46  -1.94
iter:   4 02:42:06 -8142.047841  -2.82  -2.26
iter:   5 02:46:45 -8140.161799  -3.42  -2.17
iter:   6 02:51:25 -8139.448838  -3.63  -2.48
iter:   7 02:56:04 -8146.330320  -2.64  -2.61
iter:   8 03:00:42 -8139.535224  -3.65  -1.98
iter:   9 03:05:22 -8138.910258  -3.70  -2.25
iter:  10 03:10:01 -8138.971504  -3.91  -2.82
iter:  11 03:14:40 -8138.801366c -4.32  -2.71
iter:  12 03:19:20 -8138.868892c -4.32  -2.76
iter:  13 03:24:00 -8138.794993c -4.15  -2.60
iter:  14 03:28:40 -8138.766587c -4.54  -3.15
iter:  15 03:33:24 -8138.795886c -4.88  -2.93
iter:  16 03:38:08 -8138.777723c -5.04  -3.27
iter:  17 03:42:52 -8138.771759c -5.75  -3.22
iter:  18 03:47:35 -8138.767038c -5.84  -3.44
iter:  19 03:52:18 -8138.764643c -5.57  -3.60
iter:  20 03:57:01 -8138.760715c -6.19  -3.89
iter:  21 04:01:44 -8138.764614c -7.19  -3.67
iter:  22 04:06:28 -8138.763331c -6.05  -3.83
iter:  23 04:11:11 -8138.768268c -6.38  -3.79
iter:  24 04:15:53 -8138.761924c -6.63  -3.90
iter:  25 04:20:35 -8138.764124c -7.16  -4.31c
iter:  26 04:25:19 -8138.763579c -7.20  -4.20c
iter:  27 04:30:04 -8138.762751c -7.76c -4.31c

Converged after 27 iterations.

Dipole moment: (-20.794363, 18.934087, 1.215869) |e|*Ang

Energy contributions relative to reference atoms: (reference = -4623378.162245)

Kinetic:       +979.961972
Potential:     -1015.002740
External:        +0.000000
XC:            -8101.852309
Entropy (-ST):   -1.264357
Local:           -1.237495
--------------------------
Free energy:   -8139.394929
Extrapolated:  -8138.762751

Showing only first 2 kpts
 Kpt  Band  Eigenvalues  Occupancy
  0   610      0.64019    1.32187
  0   611      0.77955    0.65205
  0   612      0.82349    0.47531
  0   613      0.86187    0.35036

  1   610      0.50609    1.76336
  1   611      0.53967    1.68384
  1   612      0.55351    1.64525
  1   613      0.59661    1.50171


Fermi level: 0.70693

No gap

Forces in eV/Ang:
  0 Cu    0.07842   -0.10799   -0.37469
  1 Cu   -0.03994   -0.00850    0.01013
  2 Cu   -0.05177   -0.01157   -0.12584
  3 Cu    0.07840   -0.07557    0.07304
  4 Cu    0.02406    0.00831    0.02771
  5 Cu    0.07960    0.00435   -0.05592
  6 Cu   -0.07393    0.02118   -0.01672
  7 Cu   -0.06705   -0.04830   -0.12193
  8 Cu   -0.01799    0.00978   -0.02942
  9 Cu    0.02380   -0.03345   -0.13246
 10 Cu    0.04317   -0.02006    0.01597
 11 Cu    0.00144   -0.03159   -0.03554
 12 Cu    0.00486   -0.01685   -0.01687
 13 Cu    0.00151    0.01184    0.02956
 14 Cu    0.02181    0.01500   -0.06911
 15 Cu   -0.03783   -0.02179   -0.03113
 16 Cu    0.00251   -0.00512   -0.02955
 17 Cu   -0.02473   -0.02955   -0.03197
 18 Cu    0.02650   -0.00057   -0.08442
 19 Cu    0.05504    0.00400    0.00400
 20 Cu   -0.01951   -0.01850    0.00355
 21 Cu    0.00458    0.00438    0.00641
 22 Cu   -0.01306    0.00981    0.00173
 23 Cu    0.00139   -0.00145   -0.00629
 24 Cu   -0.01589    0.00187   -0.03851
 25 Cu   -0.00383    0.00936   -0.02625
 26 Cu    0.01554    0.00153    0.02660
 27 Cu   -0.00322    0.01412   -0.00279
 28 Cu   -0.02021    0.00299    0.04397
 29 Cu   -0.01690   -0.00194    0.03700
 30 Cu   -0.02062   -0.00355    0.02510
 31 Cu   -0.00575    0.01103    0.05695
 32 Cu   -0.00189   -0.01710    0.06935
 33 Cu    0.03770   -0.02589    0.06509
 34 Cu   -0.04509    0.01247    0.01096
 35 Cu   -0.02254    0.00889   -0.00602
 36 Cu   -0.03210   -0.01087    0.03746
 37 Cu   -0.03938   -0.01544    0.07212
 38 Cu    0.03695   -0.02786    0.10842
 39 Cu   -0.02824   -0.02538    0.04774
 40 Cu   -0.01171    0.02227    0.01097
 41 Cu    0.02847    0.07620    0.10848
 42 Cu    0.03709   -0.02681   -0.03896
 43 Cu   -0.03854   -0.06983    0.14412
 44 Cu    0.00021   -0.01767    0.01614
 45 Cu    0.01099    0.02318    0.01385
 46 Cu    0.08345   -0.11948    0.28287
 47 Cu    0.05185    0.01902    0.03188
 48 Cu   -0.12757   -0.00182   -0.12143
 49 Cu    0.00784    0.01207    0.07246
 50 Cu   -0.00488    0.02345   -0.05842
 51 Cu    0.04583    0.00362   -0.04160
 52 Cu   -0.00170   -0.01681   -0.00477
 53 Cu    0.05900   -0.02414   -0.06979
 54 Cu   -0.04526   -0.05902    0.05850
 55 Cu    0.03079   -0.06665   -0.05350
 56 Cu    0.00964   -0.00427   -0.08688
 57 Cu    0.04563    0.04273   -0.03826
 58 Cu    0.04122    0.00490    0.02249
 59 Cu   -0.03259    0.02899   -0.00749
 60 Cu    0.00665   -0.00785   -0.03963
 61 Cu    0.00392   -0.01035    0.04011
 62 Cu    0.00993   -0.03965   -0.05911
 63 Cu   -0.06642   -0.01442    0.03646
 64 Cu   -0.03558   -0.02565   -0.03592
 65 Cu   -0.00065   -0.00936   -0.02513
 66 Cu    0.03659   -0.01298   -0.06930
 67 Cu    0.03012   -0.01253   -0.07725
 68 Cu   -0.03191   -0.01906    0.04405
 69 Cu    0.01102   -0.00394   -0.00301
 70 Cu   -0.01274   -0.01329    0.01877
 71 Cu    0.01356   -0.00942   -0.04737
 72 Cu   -0.00901   -0.01710   -0.02848
 73 Cu   -0.00378    0.00169   -0.01998
 74 Cu    0.02394    0.00281    0.00830
 75 Cu    0.00724   -0.00338   -0.00794
 76 Cu   -0.00106    0.01669    0.01385
 77 Cu   -0.04245    0.01332    0.04154
 78 Cu   -0.00362   -0.00229   -0.01391
 79 Cu   -0.00479    0.00224    0.04680
 80 Cu   -0.00680   -0.02406    0.06057
 81 Cu    0.01595   -0.00340    0.04695
 82 Cu   -0.04822    0.01702    0.00542
 83 Cu   -0.02949   -0.00404    0.03118
 84 Cu    0.00563   -0.00020    0.01036
 85 Cu   -0.03545    0.02603   -0.06172
 86 Cu   -0.01773   -0.00589    0.10350
 87 Cu   -0.06478   -0.01444    0.02490
 88 Cu   -0.01234    0.00524    0.01816
 89 Cu    0.00487   -0.07116    0.02444
 90 Cu    0.06147    0.01032   -0.04464
 91 Cu    0.05498   -0.02784    0.05788
 92 Cu    0.12826    0.01932    0.15394
 93 Cu   -0.15681    0.08735   -0.01285
 94 Cu   -0.21431    0.29988    0.11943
 95 Cu    0.03787    0.06811   -0.08702
 96 Cl   -1.35074   -0.07799   -0.75104
 97 Cl   -0.35224   -0.00349   -0.51138
 98 Cl    0.03405    0.22790    0.23697
 99 Cl    0.07354   -0.14032    0.09485
100 Cl   -0.18736    0.09593    0.06544
101 Cl    0.03534   -0.06171    0.15946
102 Cl    1.18191    0.05138    0.95121
103 Cl    0.18154    0.15360   -0.14416
104 Cl   -0.04442   -0.02454    0.02932
105 Cl   -0.02218   -0.06055    0.01628
106 Cl   -0.08300    0.04467   -0.30412
107 Cl    0.00551    0.00361   -0.16647
108 Cl    0.09758   -0.00056    0.06417
109 Cl    0.14743    0.01595    0.03055
110 Cl    0.06835    0.05356   -0.08861
111 Cl    0.05757    0.01957    0.04306
112 Cl    0.03305    0.09851    0.23199
113 Cl   -0.11812    0.02973   -0.03962
114 Cl    0.02565   -0.00394   -0.01138
115 Cl    0.28151   -0.14432   -0.00725
116 Cl    0.16095   -0.03932    0.01041
117 Cl   -0.25730    0.12015    0.07697
118 Cl    0.15652   -0.01015    0.05740
119 Cl    0.07595   -0.02196   -0.02145

System changes: positions 

Initializing position-dependent things.

Density initialized from wave functions
      .----------------------------.  
     /|                            |  
    / |                            |  
   /  |                            |  
  /   |                            |  
 *    |                            |  
 |    |                            |  
 |    |                            |  
 |    |                            |  
 |    Cl                           |  
 |    |                            |  
 |    |     Cl                Cl   |  
 |    |   Cl  Cu    Cl     Cl      |  
 |  Cl|  Cl Cu     Cu       Cl    Cu  
 |    |       Cu        Cl   Cu    |  
 |    |Clu      Clu    Cu   Cu     |  
 |    | Cu       Cu   Cu   Cu   Cu |  
 |    |    Cu    Cu       Cu   Cu  |  
 |    Cu   Cu       Cu    Cu       |  
 |   CCu   Cu Cu    Cu   Cu  Cu    |  
 |    |  Cu   Cu    Cu Cu    Cu    |  
 |    |  Cu   Cu       Cu    Cu    |  
 | Cu | Cu    Cu Cu    Cu          |  
 |    |     Cu   Cu    Cu Cu    Cu |  
 |    |    Cu             Cu    Cu |  
 |    Cu   Cu       Cu    Cu Cu    |  
 |   CCu      Cu    Cu       Cu    |  
 |    |       Cu       Cu    Cu    |  
 | Cu |  Cu   Cu       Cu   Cu     |  
 | Cu |  Cu Cu   Cu   Cu  Cu       |  
 |    | Cl Cu      Cl     Cu    Cu |  
 |    Cu      Cu    Cu    Cu Cl    |  
 |   CCu   Cu  Cu            Cu    |  
 |    |     Cl Cl    Cl            |  
 |    |               Cu  Cl       |  
 |    |                            |  
 |    |   Cl                 Cl    |  
 |    |            Cl              |  
 |    |                Cl          |  
 |    |                            |  
 |    |                            |  
 |    .----------------------------.  
 |   /                            /   
 |  /                            /    
 | /                            /     
 |/                            /      
 *----------------------------*       

Positions:
   0 Cu     3.326688   -0.243014    8.286442    ( 0.0000,  0.0000,  0.0000)
   1 Cu     1.465614    1.879434   10.534530    ( 0.0000,  0.0000,  0.0000)
   2 Cu     7.229519    2.112749   10.779050    ( 0.0000,  0.0000,  0.0000)
   3 Cu     8.377697    0.072976    9.952081    ( 0.0000,  0.0000,  0.0000)
   4 Cu    11.247564    0.009848   11.115103    ( 0.0000,  0.0000,  0.0000)
   5 Cu     9.564379    1.872821   11.786873    ( 0.0000,  0.0000,  0.0000)
   6 Cu     3.685305    1.772999   11.832015    ( 0.0000,  0.0000,  0.0000)
   7 Cu     5.654412    0.017915   11.373165    ( 0.0000,  0.0000,  0.0000)
   8 Cu     7.856944    0.029220   12.456302    ( 0.0000,  0.0000,  0.0000)
   9 Cu     6.101758    1.877601   13.083332    ( 0.0000,  0.0000,  0.0000)
  10 Cu     0.275621    1.857131   12.861554    ( 0.0000,  0.0000,  0.0000)
  11 Cu     1.964990    0.010959   12.266429    ( 0.0000,  0.0000,  0.0000)
  12 Cu     4.347258    0.015176   13.556515    ( 0.0000,  0.0000,  0.0000)
  13 Cu     2.584882    1.862268   14.040936    ( 0.0000,  0.0000,  0.0000)
  14 Cu     8.460932    1.863480   14.145158    ( 0.0000,  0.0000,  0.0000)
  15 Cu    10.234637    0.015382   13.478947    ( 0.0000,  0.0000,  0.0000)
  16 Cu     0.851535    0.006652   14.630063    ( 0.0000,  0.0000,  0.0000)
  17 Cu    10.813724    1.864607   15.203935    ( 0.0000,  0.0000,  0.0000)
  18 Cu     4.904354    1.856069   15.320941    ( 0.0000,  0.0000,  0.0000)
  19 Cu     6.666524   -0.000246   14.774578    ( 0.0000,  0.0000,  0.0000)
  20 Cu     9.038637    0.010619   15.844159    ( 0.0000,  0.0000,  0.0000)
  21 Cu     7.251188    1.842561   16.462945    ( 0.0000,  0.0000,  0.0000)
  22 Cu     1.451502    1.850101   16.338795    ( 0.0000,  0.0000,  0.0000)
  23 Cu     3.177170   -0.003755   15.824111    ( 0.0000,  0.0000,  0.0000)
  24 Cu     5.482724   -0.005869   17.078123    ( 0.0000,  0.0000,  0.0000)
  25 Cu     3.750431    1.833820   17.605607    ( 0.0000,  0.0000,  0.0000)
  26 Cu     9.612822    1.857475   17.539164    ( 0.0000,  0.0000,  0.0000)
  27 Cu    11.396030    0.002329   16.921180    ( 0.0000,  0.0000,  0.0000)
  28 Cu     2.036924   -0.018793   18.100221    ( 0.0000,  0.0000,  0.0000)
  29 Cu     0.286103    1.834621   18.624920    ( 0.0000,  0.0000,  0.0000)
  30 Cu     6.055724    1.834385   18.795877    ( 0.0000,  0.0000,  0.0000)
  31 Cu     7.824910   -0.013449   18.187760    ( 0.0000,  0.0000,  0.0000)
  32 Cu    10.191269   -0.040870   19.205750    ( 0.0000,  0.0000,  0.0000)
  33 Cu     8.382441    1.827573   19.880618    ( 0.0000,  0.0000,  0.0000)
  34 Cu     2.614187    1.802956   19.888155    ( 0.0000,  0.0000,  0.0000)
  35 Cu     4.333364   -0.041902   19.408412    ( 0.0000,  0.0000,  0.0000)
  36 Cu     6.632819   -0.035455   20.569987    ( 0.0000,  0.0000,  0.0000)
  37 Cu     4.885664    1.810828   21.186106    ( 0.0000,  0.0000,  0.0000)
  38 Cu    10.778838    1.768680   20.895929    ( 0.0000,  0.0000,  0.0000)
  39 Cu     0.860186   -0.040377   20.341065    ( 0.0000,  0.0000,  0.0000)
  40 Cu     3.172697   -0.071130   21.676487    ( 0.0000,  0.0000,  0.0000)
  41 Cu     1.412326    1.748628   22.059276    ( 0.0000,  0.0000,  0.0000)
  42 Cu     7.259659    1.853192   22.203382    ( 0.0000,  0.0000,  0.0000)
  43 Cu     9.061601   -0.022283   21.531284    ( 0.0000,  0.0000,  0.0000)
  44 Cu    11.400010   -0.036522   22.562702    ( 0.0000,  0.0000,  0.0000)
  45 Cu     9.863513    1.731673   23.381665    ( 0.0000,  0.0000,  0.0000)
  46 Cu     3.856820    2.357534   25.477775    ( 0.0000,  0.0000,  0.0000)
  47 Cu     5.395962   -0.241943   22.960301    ( 0.0000,  0.0000,  0.0000)
  48 Cu     3.183688    3.506610    9.090708    ( 0.0000,  0.0000,  0.0000)
  49 Cu     1.562182    5.503325   10.501582    ( 0.0000,  0.0000,  0.0000)
  50 Cu     7.138034    5.334526   10.623671    ( 0.0000,  0.0000,  0.0000)
  51 Cu     9.026740    3.713759   10.031406    ( 0.0000,  0.0000,  0.0000)
  52 Cu    11.341322    3.727237   11.245057    ( 0.0000,  0.0000,  0.0000)
  53 Cu     9.549010    5.592524   11.768888    ( 0.0000,  0.0000,  0.0000)
  54 Cu     3.733482    5.673068   11.755858    ( 0.0000,  0.0000,  0.0000)
  55 Cu     5.336216    3.818274   11.404386    ( 0.0000,  0.0000,  0.0000)
  56 Cu     7.849663    3.771967   12.511190    ( 0.0000,  0.0000,  0.0000)
  57 Cu     6.087275    5.561719   13.024111    ( 0.0000,  0.0000,  0.0000)
  58 Cu     0.277354    5.582703   12.847312    ( 0.0000,  0.0000,  0.0000)
  59 Cu     2.091238    3.746222   12.226885    ( 0.0000,  0.0000,  0.0000)
  60 Cu     4.317073    3.728073   13.598397    ( 0.0000,  0.0000,  0.0000)
  61 Cu     2.583143    5.577010   14.033349    ( 0.0000,  0.0000,  0.0000)
  62 Cu     8.460631    5.589582   14.154603    ( 0.0000,  0.0000,  0.0000)
  63 Cu    10.214359    3.731702   13.490685    ( 0.0000,  0.0000,  0.0000)
  64 Cu     0.860618    3.712376   14.585597    ( 0.0000,  0.0000,  0.0000)
  65 Cu    10.817026    5.557010   15.211030    ( 0.0000,  0.0000,  0.0000)
  66 Cu     4.907370    5.565255   15.326781    ( 0.0000,  0.0000,  0.0000)
  67 Cu     6.663397    3.723766   14.795790    ( 0.0000,  0.0000,  0.0000)
  68 Cu     9.034475    3.705766   15.830712    ( 0.0000,  0.0000,  0.0000)
  69 Cu     7.252664    5.559723   16.469330    ( 0.0000,  0.0000,  0.0000)
  70 Cu     1.457574    5.545189   16.339041    ( 0.0000,  0.0000,  0.0000)
  71 Cu     3.176320    3.707367   15.828574    ( 0.0000,  0.0000,  0.0000)
  72 Cu     5.475014    3.694982   17.085337    ( 0.0000,  0.0000,  0.0000)
  73 Cu     3.750306    5.540896   17.617609    ( 0.0000,  0.0000,  0.0000)
  74 Cu     9.612977    5.530809   17.532768    ( 0.0000,  0.0000,  0.0000)
  75 Cu    11.399375    3.701386   16.920720    ( 0.0000,  0.0000,  0.0000)
  76 Cu     2.042485    3.679671   18.089500    ( 0.0000,  0.0000,  0.0000)
  77 Cu     0.278933    5.534711   18.624895    ( 0.0000,  0.0000,  0.0000)
  78 Cu     6.064584    5.530656   18.788053    ( 0.0000,  0.0000,  0.0000)
  79 Cu     7.827242    3.692574   18.167028    ( 0.0000,  0.0000,  0.0000)
  80 Cu    10.200006    3.672111   19.222454    ( 0.0000,  0.0000,  0.0000)
  81 Cu     8.402292    5.524535   19.883255    ( 0.0000,  0.0000,  0.0000)
  82 Cu     2.602345    5.509092   19.900417    ( 0.0000,  0.0000,  0.0000)
  83 Cu     4.318977    3.670867   19.393090    ( 0.0000,  0.0000,  0.0000)
  84 Cu     6.630108    3.683382   20.570163    ( 0.0000,  0.0000,  0.0000)
  85 Cu     4.894970    5.474873   21.185373    ( 0.0000,  0.0000,  0.0000)
  86 Cu    10.778526    5.498861   20.910699    ( 0.0000,  0.0000,  0.0000)
  87 Cu     0.870266    3.670631   20.311060    ( 0.0000,  0.0000,  0.0000)
  88 Cu     3.197526    3.653121   21.698767    ( 0.0000,  0.0000,  0.0000)
  89 Cu     1.346873    5.422226   22.102031    ( 0.0000,  0.0000,  0.0000)
  90 Cu     7.291687    5.500975   22.243287    ( 0.0000,  0.0000,  0.0000)
  91 Cu     9.059134    3.648885   21.538383    ( 0.0000,  0.0000,  0.0000)
  92 Cu    11.355289    3.580436   22.512900    ( 0.0000,  0.0000,  0.0000)
  93 Cu     9.962339    5.400261   23.338213    ( 0.0000,  0.0000,  0.0000)
  94 Cu     3.790366    5.790153   24.939073    ( 0.0000,  0.0000,  0.0000)
  95 Cu     5.419718    3.838752   23.096602    ( 0.0000,  0.0000,  0.0000)
  96 Cl    10.395956    5.050709   25.966380    ( 0.0000,  0.0000,  0.0000)
  97 Cl     6.070227    5.396878   24.923716    ( 0.0000,  0.0000,  0.0000)
  98 Cl     3.321049    4.140447   26.465963    ( 0.0000,  0.0000,  0.0000)
  99 Cl     3.241981    0.475287   26.657320    ( 0.0000,  0.0000,  0.0000)
 100 Cl     5.789585    1.652716   24.367214    ( 0.0000,  0.0000,  0.0000)
 101 Cl    10.362045    1.544277   25.908137    ( 0.0000,  0.0000,  0.0000)
 102 Cl    12.093497    5.256302   27.100600    ( 0.0000,  0.0000,  0.0000)
 103 Cl    12.429294    1.211887   26.449847    ( 0.0000,  0.0000,  0.0000)
 104 Cl     7.204487    3.817479    8.673630    ( 0.0000,  0.0000,  0.0000)
 105 Cl     7.202374    0.233055    6.856851    ( 0.0000,  0.0000,  0.0000)
 106 Cl     3.134741    1.741913    7.380102    ( 0.0000,  0.0000,  0.0000)
 107 Cl     3.234334    5.095080    7.453095    ( 0.0000,  0.0000,  0.0000)
 108 Cl     0.931344   -0.015930    9.138578    ( 0.0000,  0.0000,  0.0000)
 109 Cl     0.684909    3.685959    9.086766    ( 0.0000,  0.0000,  0.0000)
 110 Cl     8.705706    0.935762    5.708920    ( 0.0000,  0.0000,  0.0000)
 111 Cl    10.003129    4.283765    6.066124    ( 0.0000,  0.0000,  0.0000)
 112 Cl     8.463402   -0.279727   23.963934    ( 0.0000,  0.0000,  0.0000)
 113 Cl     5.491278    6.516921    9.232485    ( 0.0000,  0.0000,  0.0000)
 114 Cl     8.492560    3.535377   24.110458    ( 0.0000,  0.0000,  0.0000)
 115 Cl    13.625495   -0.482923   23.851457    ( 0.0000,  0.0000,  0.0000)
 116 Cl    13.350269    3.320831   23.837365    ( 0.0000,  0.0000,  0.0000)
 117 Cl     4.897711    2.134197    9.828802    ( 0.0000,  0.0000,  0.0000)
 118 Cl     9.806940    5.820471    9.175369    ( 0.0000,  0.0000,  0.0000)
 119 Cl     9.807994    1.700910    9.132998    ( 0.0000,  0.0000,  0.0000)

Unit cell:
           periodic     x           y           z      points  spacing
  1. axis:    yes   11.703590    0.000000    0.000000    70     0.1672
  2. axis:    yes    0.000000    7.402000    0.000000    42     0.1762
  3. axis:    no     0.000000    0.000000   33.459128   192     0.1743

  Lengths:  11.703590   7.402000  33.459128
  Angles:   90.000000  90.000000  90.000000

Effective grid spacing dv^(1/3) = 0.1725

     iter     time        total  log10-change:
                         energy  eigst   dens
iter:   1 04:37:47 -8144.188269  -1.75
iter:   2 04:42:32 -8157.156966  -1.81  -1.92
iter:   3 04:47:17 -8147.288714  -2.04  -1.82
iter:   4 04:52:02 -8141.821853  -2.66  -1.93
iter:   5 04:56:47 -8141.397808  -3.16  -2.29
iter:   6 05:01:32 -8140.200431  -3.36  -2.28
iter:   7 05:06:18 -8141.420645  -2.91  -2.48
iter:   8 05:11:04 -8139.693624  -3.46  -2.05
iter:   9 05:15:52 -8139.376519  -3.75  -2.60
iter:  10 05:20:41 -8139.305737c -4.29  -2.70
iter:  11 05:25:30 -8139.457407c -3.87  -2.78
iter:  12 05:30:15 -8139.395175c -4.96  -2.40
iter:  13 05:34:59 -8139.250842c -4.85  -2.42
iter:  14 05:39:44 -8139.153707c -4.43  -2.58
iter:  15 05:44:28 -8139.130654c -4.31  -2.78
iter:  16 05:49:13 -8139.127214c -4.93  -2.90
iter:  17 05:53:57 -8139.119395c -5.16  -3.18
iter:  18 05:58:42 -8139.141239c -5.00  -3.16
iter:  19 06:03:27 -8139.161754c -5.11  -3.31
iter:  20 06:08:12 -8139.135437c -5.58  -3.36
iter:  21 06:12:57 -8139.131195c -5.91  -3.51
iter:  22 06:17:40 -8139.130932c -6.41  -3.78
iter:  23 06:22:24 -8139.135649c -6.30  -3.91
iter:  24 06:27:07 -8139.132720c -6.09  -3.90
iter:  25 06:31:48 -8139.127707c -6.12  -3.79
iter:  26 06:36:28 -8139.130207c -6.74  -3.89
iter:  27 06:41:07 -8139.130685c -7.80c -4.28c

Converged after 27 iterations.

Dipole moment: (-18.345615, 18.442477, 1.237230) |e|*Ang

Energy contributions relative to reference atoms: (reference = -4623378.162245)

Kinetic:       +974.452711
Potential:     -1011.154383
External:        +0.000000
XC:            -8100.512140
Entropy (-ST):   -1.277962
Local:           -1.277891
--------------------------
Free energy:   -8139.769666
Extrapolated:  -8139.130685

Showing only first 2 kpts
 Kpt  Band  Eigenvalues  Occupancy
  0   610      0.63319    1.34823
  0   611      0.77853    0.65190
  0   612      0.81835    0.49025
  0   613      0.86808    0.32986

  1   610      0.52119    1.72751
  1   611      0.53840    1.68441
  1   612      0.55937    1.62460
  1   613      0.60141    1.47949


Fermi level: 0.70587

No gap

Forces in eV/Ang:
  0 Cu    0.07291   -0.26990   -0.36792
  1 Cu   -0.12137    0.00993   -0.04978
  2 Cu   -0.27322   -0.10791   -0.10299
  3 Cu    0.09644   -0.10594    0.03438
  4 Cu    0.09165   -0.00903   -0.06283
  5 Cu    0.04084   -0.02924    0.01212
  6 Cu    0.14820    0.06916   -0.04743
  7 Cu   -0.07150    0.00590   -0.29093
  8 Cu    0.08169   -0.02359   -0.06471
  9 Cu    0.00399    0.03496   -0.08250
 10 Cu   -0.02786   -0.02226   -0.00781
 11 Cu   -0.03551   -0.05733    0.07507
 12 Cu   -0.01173   -0.01910    0.03316
 13 Cu   -0.01701   -0.01627    0.04683
 14 Cu   -0.03710   -0.00070    0.00638
 15 Cu   -0.02142    0.00221   -0.01233
 16 Cu    0.02347    0.00321    0.00623
 17 Cu   -0.00837   -0.00399    0.04703
 18 Cu    0.00503   -0.00810    0.01523
 19 Cu   -0.00533   -0.01725   -0.05547
 20 Cu    0.01996    0.00291    0.01017
 21 Cu    0.01337    0.01679    0.01073
 22 Cu   -0.02301   -0.00390    0.00277
 23 Cu    0.01842    0.01860   -0.01236
 24 Cu    0.00024    0.02460   -0.00014
 25 Cu   -0.00036   -0.02175   -0.03478
 26 Cu   -0.00208   -0.07928    0.04457
 27 Cu   -0.02916   -0.01721    0.05129
 28 Cu   -0.04068   -0.01886   -0.00361
 29 Cu   -0.04255   -0.02225    0.01323
 30 Cu    0.02522   -0.00205    0.03843
 31 Cu   -0.00249    0.00109   -0.01982
 32 Cu   -0.01099    0.02693    0.01245
 33 Cu    0.04831   -0.01416   -0.00943
 34 Cu    0.01357    0.02570   -0.04368
 35 Cu   -0.00635    0.02112   -0.02101
 36 Cu   -0.02562   -0.01544   -0.01416
 37 Cu    0.03328    0.02482    0.05023
 38 Cu   -0.01379    0.08253    0.00550
 39 Cu    0.03054   -0.04529   -0.02054
 40 Cu    0.00015   -0.03185    0.00986
 41 Cu   -0.03571    0.16919    0.16793
 42 Cu   -0.03963   -0.02987    0.10539
 43 Cu   -0.05903   -0.02092    0.06414
 44 Cu    0.04956   -0.16956    0.13298
 45 Cu   -0.02415    0.01791    0.12763
 46 Cu    0.36258   -0.89959   -0.10176
 47 Cu    0.07678    0.09746    0.06796
 48 Cu   -0.15711    0.01868   -0.20255
 49 Cu   -0.13952    0.09131   -0.12531
 50 Cu   -0.03793    0.15670   -0.08999
 51 Cu    0.36954    0.13361    0.02241
 52 Cu    0.01259   -0.01780   -0.13564
 53 Cu   -0.02867   -0.01556   -0.06276
 54 Cu    0.10935    0.01096    0.07546
 55 Cu    0.05345   -0.21758   -0.17385
 56 Cu    0.00039   -0.02675   -0.02685
 57 Cu    0.02582   -0.01090    0.05890
 58 Cu   -0.05117    0.00315    0.03058
 59 Cu   -0.01702   -0.09856    0.11479
 60 Cu   -0.01029   -0.01332    0.05099
 61 Cu    0.00688   -0.00021    0.03688
 62 Cu   -0.01784    0.01741    0.01567
 63 Cu    0.01415   -0.01392   -0.03134
 64 Cu    0.01506    0.00775    0.04291
 65 Cu   -0.01067    0.01068    0.03402
 66 Cu    0.01956    0.00791    0.00065
 67 Cu   -0.00124   -0.02692   -0.06024
 68 Cu    0.00305    0.00048   -0.00386
 69 Cu    0.01732   -0.02480   -0.01614
 70 Cu   -0.05314   -0.00813    0.03631
 71 Cu   -0.00940   -0.00254   -0.02663
 72 Cu    0.03050   -0.00179   -0.04757
 73 Cu    0.00680    0.00497   -0.02174
 74 Cu   -0.01509    0.02327    0.03383
 75 Cu   -0.00723   -0.01872    0.01160
 76 Cu   -0.04665    0.00792    0.01728
 77 Cu   -0.00058    0.02987   -0.00863
 78 Cu    0.00666    0.00041    0.02005
 79 Cu   -0.01358   -0.02890    0.05727
 80 Cu   -0.02632   -0.03179    0.01090
 81 Cu   -0.00065   -0.02884    0.00067
 82 Cu   -0.02232   -0.00259   -0.04977
 83 Cu    0.02466   -0.01704    0.02068
 84 Cu   -0.02406    0.00187   -0.02309
 85 Cu    0.03188    0.03343   -0.07947
 86 Cu    0.01933    0.04319   -0.00144
 87 Cu    0.00937   -0.04554    0.04321
 88 Cu   -0.03187   -0.02771    0.00083
 89 Cu   -0.01489    0.09240    0.08811
 90 Cu    0.02516    0.00486   -0.00957
 91 Cu   -0.08902   -0.02835    0.00377
 92 Cu    0.25535   -0.10489    0.22093
 93 Cu   -0.11552    0.13685    0.08778
 94 Cu    0.04110    0.31303    0.11415
 95 Cu    0.06667   -0.05450   -0.10404
 96 Cl    0.22870    0.15142    0.22542
 97 Cl   -0.64693    0.05234   -0.42394
 98 Cl   -0.13174    0.93365    0.75056
 99 Cl    0.09723   -0.02204    0.03440
100 Cl   -0.26185    0.08102   -0.05350
101 Cl    0.29530    0.01143    0.08854
102 Cl   -0.32214   -0.13514   -0.09625
103 Cl   -0.08131   -0.06486   -0.06044
104 Cl   -0.22237   -0.04171   -0.11439
105 Cl    0.05965   -0.02225   -0.03292
106 Cl   -0.08191    0.18995   -0.39407
107 Cl    0.01487    0.03692   -0.16209
108 Cl    0.17384   -0.04746    0.15326
109 Cl    0.03211    0.00716    0.16021
110 Cl   -0.01975    0.01412   -0.01751
111 Cl    0.05663    0.01767    0.05135
112 Cl    0.05769    0.13714    0.13117
113 Cl   -0.04264    0.04656    0.08365
114 Cl   -0.00862   -0.03629   -0.00438
115 Cl    0.18688   -0.09965   -0.04443
116 Cl    0.03869   -0.06184   -0.21660
117 Cl   -0.10357    0.13769    0.17581
118 Cl    0.04360   -0.12637    0.10281
119 Cl    0.10243    0.02408   -0.04367

System changes: positions 

Initializing position-dependent things.

Density initialized from wave functions
      .----------------------------.  
     /|                            |  
    / |                            |  
   /  |                            |  
  /   |                            |  
 *    |                            |  
 |    |                            |  
 |    |                            |  
 |    |                            |  
 |   Cl                            |  
 |    |                            |  
 |    |     ClCu              Cl   |  
 |    |    Cl      Cl      Cl      |  
 |  Cl|  Cl Cu     Cu       Cl    Cu  
 |    |       Cu        Cl   Cu    |  
 |    |Clu      Clu    Cu   Cu     |  
 |    | Cu       Cu   Cu   Cu   Cu |  
 |    |    Cu    Cu       Cu   Cu  |  
 |    Cu   Cu       Cu    Cu       |  
 |   CCu   Cu Cu    Cu   Cu  Cu    |  
 |    |  Cu   Cu    Cu Cu    Cu    |  
 |    |  Cu   Cu       Cu    Cu    |  
 | Cu | Cu    Cu Cu    Cu          |  
 |    |     Cu   Cu       Cu    Cu |  
 |    |    Cu             Cu    Cu |  
 |    Cu   Cu       Cu    Cu Cu    |  
 |   CCu      Cu    Cu       Cu    |  
 |    |       Cu       Cu    Cu    |  
 | Cu |  Cu   Cu  Cu   Cu   Cu     |  
 | Cu |  Cu Cu   Cu   Cu  Cu       |  
 |    | Cl Cu      Cl     Cu    Cu |  
 |    Cu      Cu    Cu    Cu Cl    |  
 |   CCu      CCu            Cu    |  
 |    |    Cu        Cl            |  
 |    |     Cl        Cu   Cl      |  
 |    |                            |  
 |    |   Cl                 Cl    |  
 |    |            Cl              |  
 |    |                Cl          |  
 |    |                            |  
 |    |                            |  
 |    .----------------------------.  
 |   /                            /   
 |  /                            /    
 | /                            /     
 |/                            /      
 *----------------------------*       

Positions:
   0 Cu     3.353631   -0.259861    8.152774    ( 0.0000,  0.0000,  0.0000)
   1 Cu     1.452127    1.875762   10.539929    ( 0.0000,  0.0000,  0.0000)
   2 Cu     7.224605    2.107356   10.737702    ( 0.0000,  0.0000,  0.0000)
   3 Cu     8.407278    0.051718    9.976649    ( 0.0000,  0.0000,  0.0000)
   4 Cu    11.255548    0.012679   11.126514    ( 0.0000,  0.0000,  0.0000)
   5 Cu     9.588187    1.875087   11.766755    ( 0.0000,  0.0000,  0.0000)
   6 Cu     3.656354    1.777321   11.833626    ( 0.0000,  0.0000,  0.0000)
   7 Cu     5.632304    0.000967   11.338856    ( 0.0000,  0.0000,  0.0000)
   8 Cu     7.847800    0.032962   12.445417    ( 0.0000,  0.0000,  0.0000)
   9 Cu     6.109247    1.864717   13.039881    ( 0.0000,  0.0000,  0.0000)
  10 Cu     0.289926    1.850678   12.867167    ( 0.0000,  0.0000,  0.0000)
  11 Cu     1.966757    0.001268   12.255948    ( 0.0000,  0.0000,  0.0000)
  12 Cu     4.349603    0.011056   13.548154    ( 0.0000,  0.0000,  0.0000)
  13 Cu     2.586200    1.865418   14.049427    ( 0.0000,  0.0000,  0.0000)
  14 Cu     8.467732    1.867785   14.121629    ( 0.0000,  0.0000,  0.0000)
  15 Cu    10.222027    0.007501   13.469446    ( 0.0000,  0.0000,  0.0000)
  16 Cu     0.851632    0.004651   14.621369    ( 0.0000,  0.0000,  0.0000)
  17 Cu    10.805138    1.854191   15.193111    ( 0.0000,  0.0000,  0.0000)
  18 Cu     4.914890    1.855737   15.290949    ( 0.0000,  0.0000,  0.0000)
  19 Cu     6.685254    0.002290   14.775081    ( 0.0000,  0.0000,  0.0000)
  20 Cu     9.032497    0.004479   15.844686    ( 0.0000,  0.0000,  0.0000)
  21 Cu     7.252702    1.844063   16.465143    ( 0.0000,  0.0000,  0.0000)
  22 Cu     1.446729    1.853125   16.339988    ( 0.0000,  0.0000,  0.0000)
  23 Cu     3.176760   -0.004736   15.822552    ( 0.0000,  0.0000,  0.0000)
  24 Cu     5.478182   -0.005448   17.065310    ( 0.0000,  0.0000,  0.0000)
  25 Cu     3.748676    1.837355   17.597665    ( 0.0000,  0.0000,  0.0000)
  26 Cu     9.617524    1.858356   17.548056    ( 0.0000,  0.0000,  0.0000)
  27 Cu    11.395042    0.007053   16.919416    ( 0.0000,  0.0000,  0.0000)
  28 Cu     2.030729   -0.017400   18.114159    ( 0.0000,  0.0000,  0.0000)
  29 Cu     0.280374    1.833765   18.637815    ( 0.0000,  0.0000,  0.0000)
  30 Cu     6.048394    1.833094   18.804145    ( 0.0000,  0.0000,  0.0000)
  31 Cu     7.822330   -0.010029   18.206994    ( 0.0000,  0.0000,  0.0000)
  32 Cu    10.190001   -0.046516   19.231248    ( 0.0000,  0.0000,  0.0000)
  33 Cu     8.395700    1.817835   19.902458    ( 0.0000,  0.0000,  0.0000)
  34 Cu     2.597908    1.806464   19.893155    ( 0.0000,  0.0000,  0.0000)
  35 Cu     4.325308   -0.038410   19.406315    ( 0.0000,  0.0000,  0.0000)
  36 Cu     6.621617   -0.038976   20.582395    ( 0.0000,  0.0000,  0.0000)
  37 Cu     4.872644    1.805453   21.210458    ( 0.0000,  0.0000,  0.0000)
  38 Cu    10.791048    1.760673   20.933898    ( 0.0000,  0.0000,  0.0000)
  39 Cu     0.851530   -0.046427   20.360810    ( 0.0000,  0.0000,  0.0000)
  40 Cu     3.167404   -0.063184   21.680243    ( 0.0000,  0.0000,  0.0000)
  41 Cu     1.423495    1.764595   22.091652    ( 0.0000,  0.0000,  0.0000)
  42 Cu     7.272968    1.844002   22.191159    ( 0.0000,  0.0000,  0.0000)
  43 Cu     9.048773   -0.045310   21.581330    ( 0.0000,  0.0000,  0.0000)
  44 Cu    11.401647   -0.039338   22.570269    ( 0.0000,  0.0000,  0.0000)
  45 Cu     9.869742    1.736723   23.389988    ( 0.0000,  0.0000,  0.0000)
  46 Cu     3.873779    2.309317   25.584967    ( 0.0000,  0.0000,  0.0000)
  47 Cu     5.413979   -0.236766   22.967431    ( 0.0000,  0.0000,  0.0000)
  48 Cu     3.136986    3.505915    9.043707    ( 0.0000,  0.0000,  0.0000)
  49 Cu     1.564446    5.507471   10.527124    ( 0.0000,  0.0000,  0.0000)
  50 Cu     7.136875    5.339009   10.605977    ( 0.0000,  0.0000,  0.0000)
  51 Cu     9.040435    3.710230   10.016802    ( 0.0000,  0.0000,  0.0000)
  52 Cu    11.340782    3.721947   11.253139    ( 0.0000,  0.0000,  0.0000)
  53 Cu     9.569254    5.584100   11.747664    ( 0.0000,  0.0000,  0.0000)
  54 Cu     3.722031    5.651456   11.777554    ( 0.0000,  0.0000,  0.0000)
  55 Cu     5.347993    3.809129   11.394457    ( 0.0000,  0.0000,  0.0000)
  56 Cu     7.852825    3.769409   12.479135    ( 0.0000,  0.0000,  0.0000)
  57 Cu     6.101760    5.573777   13.007760    ( 0.0000,  0.0000,  0.0000)
  58 Cu     0.289673    5.583127   12.855377    ( 0.0000,  0.0000,  0.0000)
  59 Cu     2.079505    3.753900   12.227584    ( 0.0000,  0.0000,  0.0000)
  60 Cu     4.320616    3.725484   13.582765    ( 0.0000,  0.0000,  0.0000)
  61 Cu     2.584187    5.573023   14.047724    ( 0.0000,  0.0000,  0.0000)
  62 Cu     8.464442    5.576541   14.134149    ( 0.0000,  0.0000,  0.0000)
  63 Cu    10.193196    3.727016   13.501693    ( 0.0000,  0.0000,  0.0000)
  64 Cu     0.847972    3.704051   14.573918    ( 0.0000,  0.0000,  0.0000)
  65 Cu    10.816515    5.554043   15.202512    ( 0.0000,  0.0000,  0.0000)
  66 Cu     4.920035    5.560762   15.303642    ( 0.0000,  0.0000,  0.0000)
  67 Cu     6.673893    3.719043   14.769518    ( 0.0000,  0.0000,  0.0000)
  68 Cu     9.023811    3.699297   15.845577    ( 0.0000,  0.0000,  0.0000)
  69 Cu     7.256301    5.557819   16.468564    ( 0.0000,  0.0000,  0.0000)
  70 Cu     1.453368    5.540988   16.344719    ( 0.0000,  0.0000,  0.0000)
  71 Cu     3.180228    3.704678   15.814156    ( 0.0000,  0.0000,  0.0000)
  72 Cu     5.472206    3.689437   17.076204    ( 0.0000,  0.0000,  0.0000)
  73 Cu     3.749204    5.541093   17.610910    ( 0.0000,  0.0000,  0.0000)
  74 Cu     9.620531    5.531129   17.536116    ( 0.0000,  0.0000,  0.0000)
  75 Cu    11.400989    3.700201   16.918592    ( 0.0000,  0.0000,  0.0000)
  76 Cu     2.042194    3.684979   18.094205    ( 0.0000,  0.0000,  0.0000)
  77 Cu     0.264051    5.537733   18.639864    ( 0.0000,  0.0000,  0.0000)
  78 Cu     6.063042    5.529808   18.782482    ( 0.0000,  0.0000,  0.0000)
  79 Cu     7.825567    3.693219   18.182948    ( 0.0000,  0.0000,  0.0000)
  80 Cu    10.197506    3.664852   19.242594    ( 0.0000,  0.0000,  0.0000)
  81 Cu     8.408222    5.523695   19.898604    ( 0.0000,  0.0000,  0.0000)
  82 Cu     2.586062    5.514067   19.902546    ( 0.0000,  0.0000,  0.0000)
  83 Cu     4.308920    3.669486   19.402735    ( 0.0000,  0.0000,  0.0000)
  84 Cu     6.631880    3.682424   20.573684    ( 0.0000,  0.0000,  0.0000)
  85 Cu     4.882854    5.485072   21.163858    ( 0.0000,  0.0000,  0.0000)
  86 Cu    10.773176    5.494959   20.946396    ( 0.0000,  0.0000,  0.0000)
  87 Cu     0.847947    3.666834   20.319420    ( 0.0000,  0.0000,  0.0000)
  88 Cu     3.194046    3.655549   21.704420    ( 0.0000,  0.0000,  0.0000)
  89 Cu     1.350176    5.399289   22.109385    ( 0.0000,  0.0000,  0.0000)
  90 Cu     7.312615    5.505227   22.227592    ( 0.0000,  0.0000,  0.0000)
  91 Cu     9.080927    3.638851   21.559383    ( 0.0000,  0.0000,  0.0000)
  92 Cu    11.385727    3.592290   22.563742    ( 0.0000,  0.0000,  0.0000)
  93 Cu     9.913875    5.424337   23.350501    ( 0.0000,  0.0000,  0.0000)
  94 Cu     3.689888    5.890905   24.988767    ( 0.0000,  0.0000,  0.0000)
  95 Cu     5.431932    3.858472   23.060497    ( 0.0000,  0.0000,  0.0000)
  96 Cl    10.363840    5.106640   25.972415    ( 0.0000,  0.0000,  0.0000)
  97 Cl     5.971461    5.395701   24.749808    ( 0.0000,  0.0000,  0.0000)
  98 Cl     3.344859    4.232655   26.543318    ( 0.0000,  0.0000,  0.0000)
  99 Cl     3.274478    0.429987   26.688697    ( 0.0000,  0.0000,  0.0000)
 100 Cl     5.734166    1.686973   24.387166    ( 0.0000,  0.0000,  0.0000)
 101 Cl    10.388688    1.519891   25.958108    ( 0.0000,  0.0000,  0.0000)
 102 Cl    12.069962    5.187527   27.147201    ( 0.0000,  0.0000,  0.0000)
 103 Cl    12.477774    1.272577   26.392077    ( 0.0000,  0.0000,  0.0000)
 104 Cl     7.186836    3.808819    8.683497    ( 0.0000,  0.0000,  0.0000)
 105 Cl     7.216688    0.221703    6.847001    ( 0.0000,  0.0000,  0.0000)
 106 Cl     3.107197    1.749521    7.281728    ( 0.0000,  0.0000,  0.0000)
 107 Cl     3.236116    5.084779    7.387796    ( 0.0000,  0.0000,  0.0000)
 108 Cl     0.968439   -0.014650    9.157785    ( 0.0000,  0.0000,  0.0000)
 109 Cl     0.735112    3.692842    9.090060    ( 0.0000,  0.0000,  0.0000)
 110 Cl     8.708132    0.945125    5.694425    ( 0.0000,  0.0000,  0.0000)
 111 Cl    10.024100    4.290707    6.082934    ( 0.0000,  0.0000,  0.0000)
 112 Cl     8.464344   -0.238713   24.039976    ( 0.0000,  0.0000,  0.0000)
 113 Cl     5.448479    6.526566    9.213395    ( 0.0000,  0.0000,  0.0000)
 114 Cl     8.487786    3.530999   24.106377    ( 0.0000,  0.0000,  0.0000)
 115 Cl    13.717507   -0.526960   23.841880    ( 0.0000,  0.0000,  0.0000)
 116 Cl    13.417702    3.309188   23.849024    ( 0.0000,  0.0000,  0.0000)
 117 Cl     4.802134    2.168891    9.839102    ( 0.0000,  0.0000,  0.0000)
 118 Cl     9.862669    5.818128    9.191700    ( 0.0000,  0.0000,  0.0000)
 119 Cl     9.832901    1.692631    9.126102    ( 0.0000,  0.0000,  0.0000)

Unit cell:
           periodic     x           y           z      points  spacing
  1. axis:    yes   11.703590    0.000000    0.000000    70     0.1672
  2. axis:    yes    0.000000    7.402000    0.000000    42     0.1762
  3. axis:    no     0.000000    0.000000   33.459128   192     0.1743

  Lengths:  11.703590   7.402000  33.459128
  Angles:   90.000000  90.000000  90.000000

Effective grid spacing dv^(1/3) = 0.1725

     iter     time        total  log10-change:
                         energy  eigst   dens
iter:   1 06:48:42 -8148.094130  -1.57
iter:   2 06:53:21 -8154.483939  -1.59  -1.84
iter:   3 06:58:01 -8143.644674  -2.44  -1.87
iter:   4 07:02:40 -8143.066621  -2.89  -2.25
iter:   5 07:07:21 -8141.907561  -3.18  -2.20
iter:   6 07:12:04 -8140.557291  -2.70  -2.38
iter:   7 07:16:46 -8139.797969  -3.77  -2.20
iter:   8 07:21:28 -8139.708929  -3.93  -2.60
iter:   9 07:26:09 -8139.786292c -3.94  -2.77
iter:  10 07:30:52 -8139.642863c -4.52  -2.44
iter:  11 07:35:36 -8139.596480c -3.95  -2.62
iter:  12 07:40:17 -8139.623472c -4.25  -2.84
iter:  13 07:44:58 -8139.599709c -4.66  -2.99
iter:  14 07:49:38 -8139.571797c -4.86  -2.94
iter:  15 07:54:20 -8139.576959c -4.98  -3.12
iter:  16 07:59:02 -8139.624625c -5.05  -3.29
iter:  17 08:03:44 -8139.590083c -5.38  -3.14
iter:  18 08:08:24 -8139.579710c -5.25  -3.36
iter:  19 08:13:05 -8139.580688c -6.14  -3.64
iter:  20 08:17:46 -8139.578313c -6.11  -3.85
iter:  21 08:22:28 -8139.578038c -6.68  -3.86
iter:  22 08:27:09 -8139.580688c -6.29  -3.85
iter:  23 08:31:50 -8139.582371c -6.58  -4.01c
iter:  24 08:36:32 -8139.577991c -6.74  -4.12c
iter:  25 08:41:13 -8139.578819c -7.01  -4.18c
iter:  26 08:45:54 -8139.580828c -7.58c -4.48c

Converged after 26 iterations.

Dipole moment: (-16.864484, 19.400978, 1.290151) |e|*Ang

Energy contributions relative to reference atoms: (reference = -4623378.162245)

Kinetic:       +973.611907
Potential:     -1010.779155
External:        +0.000000
XC:            -8100.522396
Entropy (-ST):   -1.282503
Local:           -1.249933
--------------------------
Free energy:   -8140.222080
Extrapolated:  -8139.580828

Showing only first 2 kpts
 Kpt  Band  Eigenvalues  Occupancy
  0   610      0.63948    1.37592
  0   611      0.79201    0.64833
  0   612      0.82724    0.50438
  0   613      0.89093    0.30274

  1   610      0.54549    1.69896
  1   611      0.55500    1.67383
  1   612      0.58087    1.59692
  1   613      0.62312    1.44391


Fermi level: 0.71854

No gap

Forces in eV/Ang:
  0 Cu    0.04939    0.07107   -0.41972
  1 Cu   -0.13299    0.01804   -0.02898
  2 Cu   -0.20706   -0.13848   -0.10540
  3 Cu    0.13670   -0.01823   -0.02636
  4 Cu    0.10931   -0.02611   -0.09327
  5 Cu   -0.06517   -0.04697    0.04266
  6 Cu    0.22143    0.03479    0.05183
  7 Cu   -0.02442    0.05997   -0.20801
  8 Cu    0.08149   -0.04586   -0.09944
  9 Cu   -0.02791    0.04578    0.00771
 10 Cu   -0.09416   -0.01390   -0.02827
 11 Cu   -0.01999   -0.03259    0.16152
 12 Cu    0.00336    0.00994    0.02198
 13 Cu   -0.01384   -0.05374    0.01599
 14 Cu   -0.08856   -0.02891    0.07507
 15 Cu    0.01330    0.01948    0.01065
 16 Cu    0.01555    0.00601    0.06286
 17 Cu    0.00627    0.01882    0.10672
 18 Cu    0.00259   -0.01573    0.08744
 19 Cu   -0.06299   -0.01411   -0.10518
 20 Cu    0.04921    0.02329    0.00651
 21 Cu    0.01560    0.01618    0.00654
 22 Cu   -0.02864   -0.02208    0.01770
 23 Cu    0.01762    0.02253    0.00032
 24 Cu    0.03423    0.03279    0.03302
 25 Cu   -0.00326   -0.03127   -0.02402
 26 Cu   -0.02911   -0.11784    0.04092
 27 Cu   -0.04133   -0.04300    0.07513
 28 Cu   -0.03906   -0.02625   -0.06668
 29 Cu   -0.04924   -0.03657   -0.00673
 30 Cu    0.05871   -0.00095    0.02664
 31 Cu   -0.00731   -0.01810   -0.09383
 32 Cu   -0.02082    0.05746   -0.01113
 33 Cu    0.03403   -0.01612   -0.06416
 34 Cu    0.04506    0.01312   -0.03576
 35 Cu    0.00235    0.03426   -0.02647
 36 Cu    0.00234    0.00349   -0.05755
 37 Cu    0.09497    0.04889    0.00853
 38 Cu   -0.04979    0.13734   -0.04703
 39 Cu    0.07942    0.00962   -0.02278
 40 Cu    0.01202   -0.04631   -0.03616
 41 Cu   -0.07838    0.03330    0.05379
 42 Cu   -0.10034   -0.02152    0.17904
 43 Cu   -0.03089    0.06488   -0.05123
 44 Cu    0.05989   -0.19512    0.19701
 45 Cu   -0.01770   -0.01325    0.15033
 46 Cu    0.01594    0.06088    0.36109
 47 Cu    0.06936    0.15528   -0.01896
 48 Cu   -0.14307    0.00959   -0.29734
 49 Cu   -0.19216    0.10603   -0.18585
 50 Cu   -0.04046    0.14629   -0.08235
 51 Cu    0.34609    0.12922   -0.01928
 52 Cu    0.04243   -0.00549   -0.10313
 53 Cu   -0.09748    0.00378    0.00714
 54 Cu    0.22059    0.03644    0.06586
 55 Cu    0.08916   -0.11434   -0.11184
 56 Cu   -0.00999   -0.05465   -0.02675
 57 Cu   -0.02130   -0.08048    0.04852
 58 Cu   -0.13987   -0.02317    0.01912
 59 Cu   -0.01776   -0.16951    0.19649
 60 Cu    0.00845   -0.01116    0.06568
 61 Cu   -0.00003    0.00091    0.02066
 62 Cu   -0.03188    0.06465    0.07233
 63 Cu    0.10405   -0.00546   -0.10538
 64 Cu    0.04326    0.03805    0.11684
 65 Cu   -0.02556    0.02554    0.08313
 66 Cu    0.00060    0.02453    0.07873
 67 Cu   -0.02799   -0.03810   -0.02309
 68 Cu    0.03991    0.01678   -0.04477
 69 Cu    0.01392   -0.04234   -0.02045
 70 Cu   -0.06629    0.00710    0.03415
 71 Cu   -0.03423    0.00975    0.03725
 72 Cu    0.05867    0.01620   -0.04196
 73 Cu    0.01527   -0.00270   -0.02168
 74 Cu   -0.05806    0.02178    0.05546
 75 Cu   -0.03915   -0.02792    0.04099
 76 Cu   -0.07132   -0.01369    0.00778
 77 Cu    0.02617    0.00964   -0.03560
 78 Cu    0.01367    0.00532    0.02517
 79 Cu   -0.01382   -0.05143    0.03691
 80 Cu   -0.03574   -0.00877   -0.04381
 81 Cu   -0.00644   -0.03422   -0.04273
 82 Cu    0.01275   -0.03752   -0.06888
 83 Cu    0.06474   -0.02451   -0.01104
 84 Cu   -0.03822   -0.01745   -0.04347
 85 Cu    0.07706    0.04219   -0.08144
 86 Cu    0.04639    0.01977   -0.06597
 87 Cu    0.06885   -0.03177    0.05858
 88 Cu   -0.01753   -0.03208   -0.06163
 89 Cu   -0.01536    0.22060    0.05816
 90 Cu   -0.02920   -0.01359   -0.00168
 91 Cu   -0.11898   -0.00814   -0.00432
 92 Cu    0.07288   -0.08609    0.20654
 93 Cu   -0.01250    0.06272    0.08773
 94 Cu    0.26963    0.05763    0.38962
 95 Cu    0.03132   -0.31331   -0.29989
 96 Cl    0.40822    0.10832    0.37771
 97 Cl   -0.39970    0.17877   -0.13903
[...]
 109 Cl     1.099542    3.821141    8.913363    ( 0.0000,  0.0000,  0.0000)
 110 Cl     8.576052    1.096101    5.742430    ( 0.0000,  0.0000,  0.0000)
 111 Cl    10.531226    4.272263    6.076175    ( 0.0000,  0.0000,  0.0000)
 112 Cl     8.360456   -0.133568   24.534420    ( 0.0000,  0.0000,  0.0000)
 113 Cl     4.846186    6.150467    9.393013    ( 0.0000,  0.0000,  0.0000)
 114 Cl     8.378163    3.604418   24.561345    ( 0.0000,  0.0000,  0.0000)
 115 Cl    13.497959   -0.080136   23.846371    ( 0.0000,  0.0000,  0.0000)
 116 Cl    13.466199    3.665659   23.923654    ( 0.0000,  0.0000,  0.0000)
 117 Cl     3.984112    2.323518    9.585688    ( 0.0000,  0.0000,  0.0000)
 118 Cl     9.728060    5.617782    8.742801    ( 0.0000,  0.0000,  0.0000)
 119 Cl    10.069877    1.767244    8.958694    ( 0.0000,  0.0000,  0.0000)

Unit cell:
           periodic     x           y           z      points  spacing
  1. axis:    yes   11.703590    0.000000    0.000000    70     0.1672
  2. axis:    yes    0.000000    7.402000    0.000000    42     0.1762
  3. axis:    no     0.000000    0.000000   33.459128   192     0.1743

  Lengths:  11.703590   7.402000  33.459128
  Angles:   90.000000  90.000000  90.000000

Effective grid spacing dv^(1/3) = 0.1725

     iter     time        total  log10-change:
                         energy  eigst   dens
iter:   1 21:22:09 -8147.127851  -2.28
iter:   2 21:26:36 -8172.490084  -1.77  -2.02
iter:   3 21:31:03 -8148.515952  -2.12  -1.71
iter:   4 21:35:32 -8146.461883  -2.80  -2.17
iter:   5 21:40:01 -8145.025963  -3.68  -2.31
iter:   6 21:44:31 -8144.363952  -3.79  -2.55
iter:   7 21:49:01 -8147.516762  -2.74  -2.67
iter:   8 21:53:33 -8143.500049  -3.45  -1.97
iter:   9 21:58:06 -8143.500553  -4.45  -2.89
iter:  10 22:02:40 -8143.541233c -4.55  -2.87
iter:  11 22:07:13 -8143.392344c -4.49  -2.84
iter:  12 22:11:47 -8143.429122c -5.23  -3.04
iter:  13 22:16:18 -8143.336435c -4.53  -3.02
iter:  14 22:20:53 -8143.343696c -5.61  -2.96
iter:  15 22:25:25 -8143.356834c -5.00  -3.11
iter:  16 22:30:00 -8143.338865c -5.18  -3.40
iter:  17 22:34:33 -8143.345829c -5.26  -3.23
iter:  18 22:39:06 -8143.350855c -5.72  -3.36
iter:  19 22:43:37 -8143.347940c -6.29  -3.62
iter:  20 22:48:09 -8143.352252c -6.15  -3.80
iter:  21 22:52:42 -8143.348299c -5.93  -3.63
iter:  22 22:57:18 -8143.346994c -6.93  -4.06c
iter:  23 23:01:54 -8143.347310c -7.34  -4.11c
iter:  24 23:06:29 -8143.344861c -7.06  -4.13c
iter:  25 23:11:02 -8143.349440c -6.62  -4.11c
iter:  26 23:15:36 -8143.347178c -6.98  -3.95
iter:  27 23:20:09 -8143.345576c -7.20  -4.23c
iter:  28 23:24:42 -8143.346437c -7.65c -4.52c

Converged after 28 iterations.

Dipole moment: (4.979137, 29.859553, 1.282519) |e|*Ang

Energy contributions relative to reference atoms: (reference = -4623378.162245)

Kinetic:       +912.967966
Potential:     -966.554818
External:        +0.000000
XC:            -8087.661897
Entropy (-ST):   -1.258319
Local:           -1.468528
--------------------------
Free energy:   -8143.975597
Extrapolated:  -8143.346437

Showing only first 2 kpts
 Kpt  Band  Eigenvalues  Occupancy
  0   610      0.73715    1.40408
  0   611      0.84790    0.87541
  0   612      0.95785    0.41176
  0   613      1.05609    0.17697

  1   610      0.67464    1.62980
  1   611      0.72153    1.46734
  1   612      0.76696    1.27245
  1   613      0.77597    1.23024


Fermi level: 0.82286

No gap

Forces in eV/Ang:
  0 Cu   -0.08285   -0.00516   -0.07969
  1 Cu   -0.01627   -0.07108    0.08613
  2 Cu    0.09780   -0.01942    0.00802
  3 Cu   -0.03030   -0.01475   -0.01126
  4 Cu   -0.01284   -0.00442   -0.01900
  5 Cu   -0.04833    0.01060   -0.00981
  6 Cu    0.00813   -0.01032   -0.04789
  7 Cu    0.06295    0.06402    0.02079
  8 Cu   -0.01131    0.00565   -0.00285
  9 Cu    0.02969    0.04148    0.03948
 10 Cu   -0.02220   -0.01979    0.00588
 11 Cu    0.00147    0.00027    0.02790
 12 Cu    0.00675   -0.01535    0.01200
 13 Cu   -0.00086   -0.00806    0.03557
 14 Cu    0.02572   -0.02006    0.00544
 15 Cu   -0.02182    0.04521   -0.04529
 16 Cu   -0.01503   -0.01208    0.01642
 17 Cu    0.01754    0.02626   -0.03259
 18 Cu   -0.00681   -0.01952   -0.01051
 19 Cu    0.00380    0.00727    0.00386
 20 Cu   -0.01854    0.00604   -0.05169
 21 Cu   -0.00801    0.00617   -0.00520
 22 Cu    0.00367   -0.01882   -0.00246
 23 Cu    0.00832   -0.04187    0.01895
 24 Cu    0.03930    0.01887   -0.01415
 25 Cu    0.01280    0.02022   -0.08439
 26 Cu    0.00895   -0.01888   -0.01876
 27 Cu   -0.01599    0.01556   -0.01989
 28 Cu    0.00703    0.00310    0.00157
 29 Cu    0.05646   -0.00897    0.01067
 30 Cu   -0.01535   -0.00703    0.01713
 31 Cu    0.00614   -0.01662   -0.02541
 32 Cu    0.00361   -0.00875   -0.01463
 33 Cu   -0.05599    0.03815    0.01548
 34 Cu    0.02213    0.03854   -0.05604
 35 Cu   -0.01445    0.01534   -0.04273
 36 Cu   -0.02261   -0.03755   -0.00862
 37 Cu   -0.05586   -0.01249   -0.02573
 38 Cu   -0.01591    0.00458   -0.01937
 39 Cu   -0.01914   -0.02283    0.00794
 40 Cu   -0.03124    0.00123    0.03946
 41 Cu   -0.04359   -0.04340   -0.00987
 42 Cu   -0.01938    0.01122    0.04303
 43 Cu   -0.00356    0.02153    0.00850
 44 Cu    0.05264   -0.00514    0.08423
 45 Cu    0.02884    0.01032   -0.04143
 46 Cu    0.03930    0.03372   -0.02983
 47 Cu   -0.00371   -0.03383    0.05408
 48 Cu   -0.05329   -0.06319   -0.09547
 49 Cu   -0.02547   -0.00908    0.04555
 50 Cu    0.04142    0.01635    0.02102
 51 Cu   -0.02123    0.02013    0.00561
 52 Cu   -0.01573   -0.02116    0.02646
 53 Cu   -0.00576   -0.00070    0.02261
 54 Cu    0.01569    0.02139   -0.05754
 55 Cu   -0.03991    0.00970    0.04101
 56 Cu    0.02628   -0.00276    0.02488
 57 Cu    0.03404    0.00775    0.01287
 58 Cu   -0.01743    0.02583    0.04956
 59 Cu    0.01754   -0.01334    0.03856
 60 Cu    0.01897    0.00340    0.05175
 61 Cu    0.00107   -0.03097   -0.01649
 62 Cu    0.02656    0.03717   -0.02746
 63 Cu   -0.01699    0.00022    0.01927
 64 Cu    0.00063   -0.01059    0.00787
 65 Cu    0.00401    0.00852    0.02976
 66 Cu   -0.00909    0.02098    0.01747
 67 Cu    0.02414    0.00939   -0.00577
 68 Cu   -0.00907   -0.01462   -0.03728
 69 Cu   -0.01340   -0.03863   -0.05060
 70 Cu    0.05360   -0.01725   -0.01229
 71 Cu    0.03498    0.01779    0.00748
 72 Cu    0.01493   -0.02190   -0.02670
 73 Cu   -0.00426    0.00913    0.01055
 74 Cu   -0.01513   -0.00287   -0.02220
 75 Cu   -0.00008    0.00030   -0.01046
 76 Cu   -0.00211    0.00051   -0.01073
 77 Cu    0.04714   -0.00447   -0.00284
 78 Cu   -0.03871   -0.01288   -0.06150
 79 Cu    0.01103   -0.00129   -0.02514
 80 Cu    0.02889   -0.00775   -0.03173
 81 Cu    0.01059    0.02700    0.00632
 82 Cu    0.05780    0.02197   -0.02409
 83 Cu    0.00866    0.00365   -0.04628
 84 Cu   -0.01251    0.04738   -0.00556
 85 Cu   -0.05395   -0.02392    0.01930
 86 Cu   -0.02265    0.00731    0.05240
 87 Cu   -0.00591    0.01461    0.00711
 88 Cu   -0.04869    0.03291    0.02000
 89 Cu    0.00333    0.01641   -0.03032
 90 Cu   -0.03837    0.01492    0.01649
 91 Cu   -0.03174    0.03812   -0.01740
 92 Cu   -0.02011    0.00554    0.02401
 93 Cu   -0.00154    0.02923   -0.00681
 94 Cu   -0.01284   -0.04475   -0.08618
 95 Cu    0.02916    0.02966    0.04335
 96 Cl    0.02499   -0.00338   -0.01298
 97 Cl    0.03666   -0.03487   -0.11919
 98 Cl    0.04652   -0.03059    0.04108
 99 Cl    0.05673   -0.00131    0.06437
100 Cl   -0.04248    0.03343    0.05592
101 Cl    0.03638    0.00240    0.01811
102 Cl   -0.00682   -0.01052    0.01061
103 Cl   -0.00835    0.04615    0.03933
104 Cl   -0.02325   -0.03585    0.04905
105 Cl   -0.02036    0.01045   -0.05169
106 Cl   -0.02264    0.03754   -0.02551
107 Cl    0.10767    0.03466    0.02032
108 Cl   -0.06449   -0.00872   -0.00595
109 Cl   -0.14103    0.01504    0.08419
110 Cl   -0.06958    0.01342    0.05443
111 Cl    0.05319   -0.03681   -0.02140
112 Cl    0.05111    0.00931   -0.00092
113 Cl   -0.09159   -0.08135    0.17608
114 Cl    0.02277    0.02551   -0.02930
115 Cl    0.03971    0.01164    0.03177
116 Cl    0.06007   -0.02995   -0.00597
117 Cl    0.02977   -0.07082    0.00491
118 Cl    0.00346    0.03213   -0.02234
119 Cl    0.01769   -0.02040   -0.00327

System changes: positions 

Initializing position-dependent things.

Density initialized from wave functions
      .----------------------------.  
     /|                            |  
    / |                            |  
   /  |                            |  
  /   |                            |  
 *    |                            |  
 |    |                            |  
 |    |                            |  
 |    |                            |  
 |    Cl     Cl Cu                 |  
 |    |                        Cl  |  
 |    |                    Cl      |  
 |  Cl|   Cl Cu  Cl                |  
 |    |             Cu  Cl  CCl   Cu  
 |    | Cl    Cu            Cu     |  
 |    | Cu     ClCu    Cu          |  
 |    | Cu       Cu    Cu Cu   Cu  |  
 |    Cu   Cu    Cu       Cu   Cu  |  
 |    Cu   Cu       Cu    Cu       |  
 |   Cu    Cu Cu    Cu   Cu  Cu    |  
 |    |  Cu   Cu    Cu Cu    Cu   Cu  
 |    | Cu    Cu       Cu    Cu    |  
 | Cu | Cu    Cu Cu    Cu   Cu     |  
 |    | Cu Cu    Cu    Cu Cu    Cu |  
 |    |    Cu    Cu       Cu   Cu  |  
 |    Cu   Cu       Cu    Cu   Cu  |  
 |    Cu   Cu Cu    Cu   Cu  Cu    |  
 |   Cu       Cu    Cu       Cu    |  
 |    |  Cu   Cu       Cu    Cu    |  
 | Cu | Cu       Cu    Cu   Cu     |  
 |    |  ClCu    Cu       Cu    Cu |  
 |    |                   Cu       |  
 |    Cu       Cu   Cu       Cu    |  
 |    Cl    ClCu    Cl             |  
 |    |                    Cl      |  
 |    |   Cu  Cl                   |  
 |    |                       Cl   |  
 |    |                            |  
 |    |   Cl       Cl  Cl          |  
 |    |                            |  
 |    |                            |  
 |    .----------------------------.  
 |   /                            /   
 |  /                            /    
 | /                            /     
 |/                            /      
 *----------------------------*       

Positions:
   0 Cu     3.141680   -0.411192    6.764542    ( 0.0000,  0.0000,  0.0000)
   1 Cu     1.524287    1.931694   10.457878    ( 0.0000,  0.0000,  0.0000)
   2 Cu     7.290177    1.826573   10.559162    ( 0.0000,  0.0000,  0.0000)
   3 Cu     9.012405   -0.028433    9.987533    ( 0.0000,  0.0000,  0.0000)
   4 Cu    11.430937    0.039834   11.094819    ( 0.0000,  0.0000,  0.0000)
   5 Cu     9.626777    1.843739   11.734146    ( 0.0000,  0.0000,  0.0000)
   6 Cu     3.729094    1.823557   11.838688    ( 0.0000,  0.0000,  0.0000)
   7 Cu     5.555916    0.064426   11.160979    ( 0.0000,  0.0000,  0.0000)
   8 Cu     7.846617   -0.016808   12.271527    ( 0.0000,  0.0000,  0.0000)
   9 Cu     6.106292    1.831278   12.894619    ( 0.0000,  0.0000,  0.0000)
  10 Cu     0.300466    1.842741   12.845034    ( 0.0000,  0.0000,  0.0000)
  11 Cu     2.025357   -0.018890   12.282016    ( 0.0000,  0.0000,  0.0000)
  12 Cu     4.349130   -0.017323   13.507366    ( 0.0000,  0.0000,  0.0000)
  13 Cu     2.577099    1.848151   14.064732    ( 0.0000,  0.0000,  0.0000)
  14 Cu     8.444538    1.826337   14.063896    ( 0.0000,  0.0000,  0.0000)
  15 Cu    10.222614   -0.014944   13.436690    ( 0.0000,  0.0000,  0.0000)
  16 Cu     0.844138   -0.005714   14.640813    ( 0.0000,  0.0000,  0.0000)
  17 Cu    10.790995    1.837777   15.209757    ( 0.0000,  0.0000,  0.0000)
  18 Cu     4.919745    1.845158   15.265038    ( 0.0000,  0.0000,  0.0000)
  19 Cu     6.679472   -0.029540   14.660020    ( 0.0000,  0.0000,  0.0000)
  20 Cu     9.037227   -0.023134   15.811509    ( 0.0000,  0.0000,  0.0000)
  21 Cu     7.265840    1.816080   16.407277    ( 0.0000,  0.0000,  0.0000)
  22 Cu     1.414018    1.840906   16.404280    ( 0.0000,  0.0000,  0.0000)
  23 Cu     3.170982   -0.006509   15.836514    ( 0.0000,  0.0000,  0.0000)
  24 Cu     5.493296   -0.026354   17.028848    ( 0.0000,  0.0000,  0.0000)
  25 Cu     3.737371    1.820344   17.614522    ( 0.0000,  0.0000,  0.0000)
  26 Cu     9.598141    1.822717   17.566499    ( 0.0000,  0.0000,  0.0000)
  27 Cu    11.365786   -0.021066   16.979911    ( 0.0000,  0.0000,  0.0000)
  28 Cu     1.988508   -0.032597   18.160475    ( 0.0000,  0.0000,  0.0000)
  29 Cu     0.223447    1.819098   18.753665    ( 0.0000,  0.0000,  0.0000)
  30 Cu     6.085607    1.819493   18.759186    ( 0.0000,  0.0000,  0.0000)
  31 Cu     7.837538   -0.031044   18.174827    ( 0.0000,  0.0000,  0.0000)
  32 Cu    10.187180   -0.034072   19.330788    ( 0.0000,  0.0000,  0.0000)
  33 Cu     8.445948    1.808450   19.925059    ( 0.0000,  0.0000,  0.0000)
  34 Cu     2.576467    1.803649   19.943927    ( 0.0000,  0.0000,  0.0000)
  35 Cu     4.332143   -0.030121   19.382534    ( 0.0000,  0.0000,  0.0000)
  36 Cu     6.667453   -0.027971   20.528497    ( 0.0000,  0.0000,  0.0000)
  37 Cu     4.915195    1.816050   21.152084    ( 0.0000,  0.0000,  0.0000)
  38 Cu    10.755102    1.811305   21.134320    ( 0.0000,  0.0000,  0.0000)
  39 Cu     0.817824   -0.024913   20.498755    ( 0.0000,  0.0000,  0.0000)
  40 Cu     3.198707   -0.046407   21.658491    ( 0.0000,  0.0000,  0.0000)
  41 Cu     1.429306    1.815947   22.283407    ( 0.0000,  0.0000,  0.0000)
  42 Cu     7.257082    1.807848   22.209694    ( 0.0000,  0.0000,  0.0000)
  43 Cu     9.002234   -0.043133   21.678106    ( 0.0000,  0.0000,  0.0000)
  44 Cu    11.263273   -0.056286   22.807873    ( 0.0000,  0.0000,  0.0000)
  45 Cu     9.540827    1.769975   23.563740    ( 0.0000,  0.0000,  0.0000)
  46 Cu     4.219628    2.175028   26.528454    ( 0.0000,  0.0000,  0.0000)
  47 Cu     5.511184   -0.058660   22.924785    ( 0.0000,  0.0000,  0.0000)
  48 Cu     2.629445    3.395896    7.262991    ( 0.0000,  0.0000,  0.0000)
  49 Cu     1.454030    5.544237   10.503253    ( 0.0000,  0.0000,  0.0000)
  50 Cu     7.255373    5.511675   10.506918    ( 0.0000,  0.0000,  0.0000)
  51 Cu     9.159665    3.710788    9.934592    ( 0.0000,  0.0000,  0.0000)
  52 Cu    11.404569    3.693677   11.180740    ( 0.0000,  0.0000,  0.0000)
  53 Cu     9.604937    5.545867   11.723605    ( 0.0000,  0.0000,  0.0000)
  54 Cu     3.780125    5.563904   11.687225    ( 0.0000,  0.0000,  0.0000)
  55 Cu     5.467832    3.651225   11.025044    ( 0.0000,  0.0000,  0.0000)
  56 Cu     7.852764    3.691534   12.319408    ( 0.0000,  0.0000,  0.0000)
  57 Cu     6.109507    5.503844   12.867767    ( 0.0000,  0.0000,  0.0000)
  58 Cu     0.260468    5.566194   12.832284    ( 0.0000,  0.0000,  0.0000)
  59 Cu     2.023949    3.740044   12.297594    ( 0.0000,  0.0000,  0.0000)
  60 Cu     4.368861    3.709816   13.449165    ( 0.0000,  0.0000,  0.0000)
  61 Cu     2.599485    5.550485   14.032768    ( 0.0000,  0.0000,  0.0000)
  62 Cu     8.424887    5.542803   14.080005    ( 0.0000,  0.0000,  0.0000)
  63 Cu    10.199466    3.692089   13.441871    ( 0.0000,  0.0000,  0.0000)
  64 Cu     0.826469    3.698854   14.636346    ( 0.0000,  0.0000,  0.0000)
  65 Cu    10.790218    5.538150   15.201296    ( 0.0000,  0.0000,  0.0000)
  66 Cu     4.926771    5.536082   15.252203    ( 0.0000,  0.0000,  0.0000)
  67 Cu     6.673448    3.671720   14.675166    ( 0.0000,  0.0000,  0.0000)
  68 Cu     9.028770    3.689239   15.817328    ( 0.0000,  0.0000,  0.0000)
  69 Cu     7.265659    5.524006   16.434309    ( 0.0000,  0.0000,  0.0000)
  70 Cu     1.413165    5.533731   16.386086    ( 0.0000,  0.0000,  0.0000)
  71 Cu     3.167632    3.685885   15.812057    ( 0.0000,  0.0000,  0.0000)
  72 Cu     5.491102    3.686385   17.022606    ( 0.0000,  0.0000,  0.0000)
  73 Cu     3.733804    5.525550   17.604780    ( 0.0000,  0.0000,  0.0000)
  74 Cu     9.602495    5.524600   17.582821    ( 0.0000,  0.0000,  0.0000)
  75 Cu    11.359714    3.678326   16.981905    ( 0.0000,  0.0000,  0.0000)
  76 Cu     1.994090    3.669103   18.161864    ( 0.0000,  0.0000,  0.0000)
  77 Cu     0.234573    5.517155   18.745635    ( 0.0000,  0.0000,  0.0000)
  78 Cu     6.081244    5.520038   18.766977    ( 0.0000,  0.0000,  0.0000)
  79 Cu     7.828722    3.651664   18.186607    ( 0.0000,  0.0000,  0.0000)
  80 Cu    10.185431    3.659484   19.318091    ( 0.0000,  0.0000,  0.0000)
  81 Cu     8.434371    5.499974   19.924357    ( 0.0000,  0.0000,  0.0000)
  82 Cu     2.558218    5.511976   19.938781    ( 0.0000,  0.0000,  0.0000)
  83 Cu     4.341595    3.661929   19.362694    ( 0.0000,  0.0000,  0.0000)
  84 Cu     6.660945    3.648783   20.549069    ( 0.0000,  0.0000,  0.0000)
  85 Cu     4.921658    5.512982   21.125204    ( 0.0000,  0.0000,  0.0000)
  86 Cu    10.757949    5.489938   21.101896    ( 0.0000,  0.0000,  0.0000)
  87 Cu     0.826691    3.642054   20.503348    ( 0.0000,  0.0000,  0.0000)
  88 Cu     3.204380    3.668213   21.641960    ( 0.0000,  0.0000,  0.0000)
  89 Cu     1.396741    5.500511   22.264736    ( 0.0000,  0.0000,  0.0000)
  90 Cu     7.246818    5.491998   22.183574    ( 0.0000,  0.0000,  0.0000)
  91 Cu     9.028841    3.633749   21.697722    ( 0.0000,  0.0000,  0.0000)
  92 Cu    11.287251    3.639672   22.847171    ( 0.0000,  0.0000,  0.0000)
  93 Cu     9.537690    5.487082   23.499574    ( 0.0000,  0.0000,  0.0000)
  94 Cu     4.277311    5.901627   26.765991    ( 0.0000,  0.0000,  0.0000)
  95 Cu     5.503543    3.709721   22.947426    ( 0.0000,  0.0000,  0.0000)
  96 Cl    10.640353    5.872992   26.515869    ( 0.0000,  0.0000,  0.0000)
  97 Cl     5.061415    5.629869   24.550917    ( 0.0000,  0.0000,  0.0000)
  98 Cl     3.794924    3.969292   27.773402    ( 0.0000,  0.0000,  0.0000)
  99 Cl     3.505861    0.380052   27.692862    ( 0.0000,  0.0000,  0.0000)
 100 Cl     5.154293    1.893930   24.455861    ( 0.0000,  0.0000,  0.0000)
 101 Cl    10.734619    2.232405   26.042724    ( 0.0000,  0.0000,  0.0000)
 102 Cl    12.403643    5.190447   27.254728    ( 0.0000,  0.0000,  0.0000)
 103 Cl    12.456461    1.449496   26.869000    ( 0.0000,  0.0000,  0.0000)
 104 Cl     6.915404    3.436592    8.893724    ( 0.0000,  0.0000,  0.0000)
 105 Cl     7.108777    0.002843    6.681052    ( 0.0000,  0.0000,  0.0000)
 106 Cl     3.015552    1.610768    5.982526    ( 0.0000,  0.0000,  0.0000)
 107 Cl     3.789003    5.006401    6.158626    ( 0.0000,  0.0000,  0.0000)
 108 Cl     1.334233   -0.026160    9.036628    ( 0.0000,  0.0000,  0.0000)
 109 Cl     1.104925    3.812850    8.883861    ( 0.0000,  0.0000,  0.0000)
 110 Cl     8.536742    1.139939    5.788983    ( 0.0000,  0.0000,  0.0000)
 111 Cl    10.619533    4.242902    6.013546    ( 0.0000,  0.0000,  0.0000)
 112 Cl     8.368495   -0.092287   24.565782    ( 0.0000,  0.0000,  0.0000)
 113 Cl     4.748662    6.034770    9.523792    ( 0.0000,  0.0000,  0.0000)
 114 Cl     8.379640    3.637464   24.601363    ( 0.0000,  0.0000,  0.0000)
 115 Cl    13.457007   -0.054346   23.854887    ( 0.0000,  0.0000,  0.0000)
 116 Cl    13.473146    3.712560   23.906208    ( 0.0000,  0.0000,  0.0000)
 117 Cl     3.969772    2.267627    9.594998    ( 0.0000,  0.0000,  0.0000)
 118 Cl     9.650602    5.611683    8.678413    ( 0.0000,  0.0000,  0.0000)
 119 Cl    10.046551    1.771309    8.957305    ( 0.0000,  0.0000,  0.0000)

Unit cell:
           periodic     x           y           z      points  spacing
  1. axis:    yes   11.703590    0.000000    0.000000    70     0.1672
  2. axis:    yes    0.000000    7.402000    0.000000    42     0.1762
  3. axis:    no     0.000000    0.000000   33.459128   192     0.1743

  Lengths:  11.703590   7.402000  33.459128
  Angles:   90.000000  90.000000  90.000000

Effective grid spacing dv^(1/3) = 0.1725

     iter     time        total  log10-change:
                         energy  eigst   dens
iter:   1 23:32:02 -8150.345643  -1.66
iter:   2 23:36:32 -8184.142466  -1.64  -1.92
