
  ___ ___ ___ _ _ _  
 |   |   |_  | | | | 
 | | | | | . | | | | 
 |__ |  _|___|_____|  22.1.0
 |___|_|             

User:   thorkong@node025.cluster
Date:   Mon Oct 17 09:49:18 2022
Arch:   x86_64
Pid:    91798
Python: 3.10.5
gpaw:   /groups/kemi/thorkong/miniconda3/envs/gpaw22/lib/python3.10/site-packages/gpaw
_gpaw:  /groups/kemi/thorkong/miniconda3/envs/gpaw22/lib/python3.10/site-packages/
        _gpaw.cpython-310-x86_64-linux-gnu.so
ase:    /groups/kemi/thorkong/miniconda3/envs/gpaw22/lib/python3.10/site-packages/ase (version 3.22.1)
numpy:  /groups/kemi/thorkong/miniconda3/envs/gpaw22/lib/python3.10/site-packages/numpy (version 1.23.0)
scipy:  /groups/kemi/thorkong/miniconda3/envs/gpaw22/lib/python3.10/site-packages/scipy (version 1.8.1)
libxc:  5.2.3
units:  Angstrom and eV
cores: 32
OpenMP: True
OMP_NUM_THREADS: 1

Input parameters:
  basis: dzp
  kpts: [4 4 1]
  mode: {ecut: 600.0,
         name: pw}
  xc: BEEF-vdW

System changes: positions, numbers, cell, pbc, initial_charges, initial_magmoms 

Initialize ...

Cu-setup:
  name: Copper
  id: f1c4d45d90492f1bbfdcb091e8418fdf
  Z: 29.0
  valence: 11
  core: 18
  charge: 0.0
  file: /groups/kemi/thorkong/miniconda3/envs/gpaw22/share/gpaw/Cu.PBE.gz
  compensation charges: gauss, rc=0.33, lmax=2
  cutoffs: 2.06(filt), 2.43(core),
  valence states:
                energy  radius
    4s(1.00)    -4.609   1.164
    4p(0.00)    -0.698   1.164
    3d(10.00)    -5.039   1.058
    *s          22.603   1.164
    *p          26.513   1.164
    *d          22.172   1.058

  LCAO basis set for Cu:
    Name: dzp
    File: /groups/kemi/thorkong/miniconda3/envs/gpaw22/share/gpaw/Cu.dzp.basis.gz
    Number of radial functions: 5
    Number of spherical harmonics: 15
      l=0, rc=8.9688 Bohr: 4s-sz confined orbital
      l=2, rc=5.1719 Bohr: 3d-sz confined orbital
      l=0, rc=5.3281 Bohr: 4s-dz split-valence wave
      l=2, rc=3.1406 Bohr: 3d-dz split-valence wave
      l=1, rc=8.9688 Bohr: p-type Gaussian polarization

Cl-setup:
  name: Chlorine
  id: 726897f06f34e53cf8e33b5885a02604
  Z: 17.0
  valence: 7
  core: 10
  charge: 0.0
  file: /groups/kemi/thorkong/miniconda3/envs/gpaw22/share/gpaw/Cl.PBE.gz
  compensation charges: gauss, rc=0.25, lmax=2
  cutoffs: 1.40(filt), 1.49(core),
  valence states:
                energy  radius
    3s(2.00)   -20.689   0.794
    3p(5.00)    -8.594   0.794
    *s           6.523   0.794
    *p          18.617   0.794
    *d           0.000   0.794

  LCAO basis set for Cl:
    Name: dzp
    File: /groups/kemi/thorkong/miniconda3/envs/gpaw22/share/gpaw/Cl.dzp.basis.gz
    Number of radial functions: 5
    Number of spherical harmonics: 13
      l=0, rc=5.1719 Bohr: 3s-sz confined orbital
      l=1, rc=6.2656 Bohr: 3p-sz confined orbital
      l=0, rc=2.8281 Bohr: 3s-dz split-valence wave
      l=1, rc=3.5156 Bohr: 3p-dz split-valence wave
      l=2, rc=6.2656 Bohr: d-type Gaussian polarization

Reference energy: -2506488.095795

Spin-paired calculation

Convergence criteria:
 Maximum [total energy] change in last 3 cyles: 0.0005 eV / electron
 Maximum integral of absolute [dens]ity change: 0.0001 electrons / valence electron
 Maximum integral of absolute [eigenst]ate change: 4e-08 eV^2 / valence electron
 Maximum number of scf [iter]ations: 333
 (Square brackets indicate name in SCF output, whereas a 'c' in
 the SCF output indicates the quantity has converged.)

Symmetries present (total): 1

  ( 1  0  0)
  ( 0  1  0)
  ( 0  0  1)

16 k-points: 4 x 4 x 1 Monkhorst-Pack grid
8 k-points in the irreducible part of the Brillouin zone
       k-points in crystal coordinates                weights
   0:     0.12500000   -0.37500000    0.00000000          2/16
   1:     0.12500000   -0.12500000    0.00000000          2/16
   2:     0.12500000    0.12500000    0.00000000          2/16
   3:     0.12500000    0.37500000    0.00000000          2/16
   4:     0.37500000   -0.37500000    0.00000000          2/16
   5:     0.37500000   -0.12500000    0.00000000          2/16
   6:     0.37500000    0.12500000    0.00000000          2/16
   7:     0.37500000    0.37500000    0.00000000          2/16

Wave functions: Plane wave expansion
  Cutoff energy: 600.000 eV
  Number of coefficients (min, max): 54614, 54705
  Pulay-stress correction: 0.000000 eV/Ang^3 (de/decut=0.000000)
  Using FFTW library
  ScaLapack parameters: grid=2x2, blocksize=64
  Wavefunction extrapolation:
    Improved wavefunction reuse through dual PAW basis 

Occupation numbers: Fermi-Dirac: width=0.1000 eV
 

Eigensolver
   Davidson(niter=2) 

Densities:
  Coarse grid: 45*45*175 grid
  Fine grid: 90*90*350 grid
  Total Charge: 0.000000 

Density mixing:
  Method: separate
  Backend: pulay
  Linear mixing parameter: 0.05
  Mixing with 5 old densities
  Damping of long wave oscillations: 50 

Hamiltonian:
  XC and Coulomb potentials evaluated on a 90*90*350 grid
  Using the BEEF-vdW Exchange-Correlation functional
  External potential:
    NoExternalPotential
 

XC parameters: BEEF-vdW with 2 nearest neighbor stencil

Memory estimate:
  Process memory now: 241.87 MiB
  Calculator: 743.46 MiB
    Density: 42.61 MiB
      Arrays: 17.67 MiB
      Localized functions: 18.14 MiB
      Mixer: 6.80 MiB
    Hamiltonian: 12.00 MiB
      Arrays: 11.56 MiB
      XC: 0.00 MiB
      Poisson: 0.00 MiB
      vbar: 0.44 MiB
    Wavefunctions: 688.85 MiB
      Arrays psit_nG: 322.21 MiB
      Eigensolver: 349.13 MiB
      Projections: 1.55 MiB
      Projectors: 2.09 MiB
      PW-descriptor: 13.88 MiB

Total number of cores used: 32
Parallelization over k-points: 8
Domain decomposition: 1 x 1 x 4
                      2 x 2 x 8 (xc only)

Number of atoms: 60
Number of atomic orbitals: 888
Number of bands in calculation: 386
Number of valence electrons: 636
Bands to converge: occupied

... initialized

Initializing position-dependent things.

Density initialized from atomic densities
Creating initial wave functions:
  386 bands from LCAO basis set

                                              
                                              
                                              
                                              
                                   Cl         
                                              
                       Cl                     
            Cl          Cu    Cu     Cu       
                   Cu     Cu    Cu            
               Cu    Cu     Cu                
                    Cu     Cu    Cu           
                Cu    Cu    Cu                
           Cu    Cu     Cu                    
                Cu     Cu    Cu               
            Cu    Cu     Cu                   
       Cu     Cu        Cu    Cu     Cu       
                   CCu    Cu    Cu            
               Cu    Cu     Cu                
                    Cu     Cu    Cu           
                Cu    Cu    Cu                
           Cu    Cu     Cu                    
                Cu     Cu    Cu               
            Cu    Cu     Cu                   
       Cu     Cu    Cu          Cl            
                     Cl                       
                                              
         Cl                                   
                                              
                                              
                                              
                                              

Positions:
   0 Cu     2.884162   -0.011729   10.033678    ( 0.0000,  0.0000,  0.0000)
   1 Cu     4.175487    2.207390    9.968025    ( 0.0000,  0.0000,  0.0000)
   2 Cu     0.268779    0.005327   10.035957    ( 0.0000,  0.0000,  0.0000)
   3 Cu     1.563079    2.250160   10.040939    ( 0.0000,  0.0000,  0.0000)
   4 Cu     2.905835    3.013667   12.132731    ( 0.0000,  0.0000,  0.0000)
   5 Cu     1.587256    0.751197   12.155983    ( 0.0000,  0.0000,  0.0000)
   6 Cu     5.501600    3.021336   12.124235    ( 0.0000,  0.0000,  0.0000)
   7 Cu     4.203724    0.772150   12.120007    ( 0.0000,  0.0000,  0.0000)
   8 Cu     5.509809    1.511263   14.273560    ( 0.0000,  0.0000,  0.0000)
   9 Cu     6.817749    3.779201   14.272965    ( 0.0000,  0.0000,  0.0000)
  10 Cu     2.895657    1.507106   14.282845    ( 0.0000,  0.0000,  0.0000)
  11 Cu     4.204745    3.779097   14.275593    ( 0.0000,  0.0000,  0.0000)
  12 Cu     2.898323   -0.006205   16.439255    ( 0.0000,  0.0000,  0.0000)
  13 Cu     4.202828    2.263486   16.411249    ( 0.0000,  0.0000,  0.0000)
  14 Cu     0.271173   -0.001683   16.415015    ( 0.0000,  0.0000,  0.0000)
  15 Cu     1.580207    2.267720   16.418056    ( 0.0000,  0.0000,  0.0000)
  16 Cu     2.898773    3.019517   18.534881    ( 0.0000,  0.0000,  0.0000)
  17 Cu     1.574509    0.759578   18.535562    ( 0.0000,  0.0000,  0.0000)
  18 Cu     5.517461    3.017381   18.557838    ( 0.0000,  0.0000,  0.0000)
  19 Cu     4.218777    0.769327   18.565915    ( 0.0000,  0.0000,  0.0000)
  20 Cu     5.482458    1.472743   20.721328    ( 0.0000,  0.0000,  0.0000)
  21 Cu     6.840691    3.826186   20.718062    ( 0.0000,  0.0000,  0.0000)
  22 Cu     2.872766    1.512688   20.651496    ( 0.0000,  0.0000,  0.0000)
  23 Cu     4.179191    3.794081   20.647081    ( 0.0000,  0.0000,  0.0000)
  24 Cu     5.533098    4.559222    9.954112    ( 0.0000,  0.0000,  0.0000)
  25 Cu     2.867968    4.534051   10.029210    ( 0.0000,  0.0000,  0.0000)
  26 Cu     4.213127    5.276205   12.126541    ( 0.0000,  0.0000,  0.0000)
  27 Cu     6.799507    5.268601   12.115394    ( 0.0000,  0.0000,  0.0000)
  28 Cu     8.121886    6.047639   14.244202    ( 0.0000,  0.0000,  0.0000)
  29 Cu     5.516666    6.046671   14.278211    ( 0.0000,  0.0000,  0.0000)
  30 Cu     5.511110    4.531825   16.410270    ( 0.0000,  0.0000,  0.0000)
  31 Cu     2.888634    4.532926   16.406558    ( 0.0000,  0.0000,  0.0000)
  32 Cu     4.204789    5.283723   18.534523    ( 0.0000,  0.0000,  0.0000)
  33 Cu     6.814487    5.265823   18.565627    ( 0.0000,  0.0000,  0.0000)
  34 Cu     8.131354    6.045561   20.650058    ( 0.0000,  0.0000,  0.0000)
  35 Cu     5.501317    6.065983   20.648502    ( 0.0000,  0.0000,  0.0000)
  36 Cu     5.515639   -0.030915   10.037620    ( 0.0000,  0.0000,  0.0000)
  37 Cu     6.838300    2.241957   10.038361    ( 0.0000,  0.0000,  0.0000)
  38 Cu     8.121401    3.021170   12.150082    ( 0.0000,  0.0000,  0.0000)
  39 Cu     6.815400    0.755845   12.149679    ( 0.0000,  0.0000,  0.0000)
  40 Cu     8.132578    1.510559   14.278234    ( 0.0000,  0.0000,  0.0000)
  41 Cu     9.440817    3.775125   14.268637    ( 0.0000,  0.0000,  0.0000)
  42 Cu     5.504098   -0.004613   16.403245    ( 0.0000,  0.0000,  0.0000)
  43 Cu     6.816730    2.264183   16.407976    ( 0.0000,  0.0000,  0.0000)
  44 Cu     8.113114    3.026556   18.553628    ( 0.0000,  0.0000,  0.0000)
  45 Cu     6.806143    0.763216   18.553497    ( 0.0000,  0.0000,  0.0000)
  46 Cu     8.148557    1.500971   20.654047    ( 0.0000,  0.0000,  0.0000)
  47 Cu     9.453486    3.785452   20.645604    ( 0.0000,  0.0000,  0.0000)
  48 Cu     8.143342    4.522704   10.030314    ( 0.0000,  0.0000,  0.0000)
  49 Cu     9.444142    5.279553   12.148158    ( 0.0000,  0.0000,  0.0000)
  50 Cu    10.750397    6.043904   14.266863    ( 0.0000,  0.0000,  0.0000)
  51 Cu     8.125450    4.536072   16.403731    ( 0.0000,  0.0000,  0.0000)
  52 Cu     9.432612    5.289470   18.528114    ( 0.0000,  0.0000,  0.0000)
  53 Cu    10.748665    6.030225   20.646267    ( 0.0000,  0.0000,  0.0000)
  54 Cl     6.147134    2.664301   22.667231    ( 0.0000,  0.0000,  0.0000)
  55 Cl     4.853098    3.366848    8.014863    ( 0.0000,  0.0000,  0.0000)
  56 Cl    10.101076    4.907838   23.055936    ( 0.0000,  0.0000,  0.0000)
  57 Cl     0.915929    1.127744    7.628448    ( 0.0000,  0.0000,  0.0000)
  58 Cl     8.857645    5.743262    7.623330    ( 0.0000,  0.0000,  0.0000)
  59 Cl     2.077612    0.292715   23.096412    ( 0.0000,  0.0000,  0.0000)

Unit cell:
           periodic     x           y           z      points  spacing
  1. axis:    yes    7.851007    0.000000    0.000000    45     0.1511
  2. axis:    yes    3.925503    6.799171    0.000000    45     0.1511
  3. axis:    yes    0.000000    0.000000   30.683867   175     0.1753

  Lengths:   7.851007   7.851006  30.683867
  Angles:   90.000000  90.000000  60.000001

Effective grid spacing dv^(1/3) = 0.1666

     iter     time        total  log10-change:
                         energy  eigst   dens
iter:   1 09:54:23 -4482.208419
iter:   2 09:55:24 -4462.624751  +0.58  -0.87
iter:   3 09:56:07 -4366.346374  +0.00  -1.00
iter:   4 09:56:52 -4325.100488  -1.28  -1.21
iter:   5 09:57:57 -4407.571288  -0.75  -1.40
iter:   6 09:58:53 -4315.759045  -1.27  -1.16
iter:   7 09:59:40 -4312.413416  -2.27  -1.56
iter:   8 10:00:25 -4312.218834  -2.43  -1.61
iter:   9 10:01:22 -4317.110693  -1.71  -1.70
iter:  10 10:02:16 -4315.496513  -2.62  -1.76
iter:  11 10:03:02 -4312.339108  -1.66  -1.83
iter:  12 10:03:48 -4309.801415  -2.50  -1.92
iter:  13 10:04:33 -4310.007382  -3.19  -2.23
iter:  14 10:05:21 -4309.451671  -3.10  -2.16
iter:  15 10:06:05 -4309.314181  -3.41  -2.37
iter:  16 10:06:49 -4309.339587c -3.55  -2.62
iter:  17 10:07:33 -4309.262908c -3.51  -2.59
iter:  18 10:08:28 -4309.262662c -4.48  -2.96
iter:  19 10:09:19 -4309.260562c -4.24  -2.99
iter:  20 10:10:03 -4309.255581c -4.83  -3.15
iter:  21 10:10:48 -4309.254298c -5.11  -3.31
iter:  22 10:11:32 -4309.252722c -5.42  -3.38
iter:  23 10:12:17 -4309.252257c -5.22  -3.50
iter:  24 10:13:02 -4309.252200c -6.08  -3.73
iter:  25 10:13:47 -4309.252127c -5.91  -3.75
iter:  26 10:14:31 -4309.252149c -6.57  -3.82
iter:  27 10:15:16 -4309.252087c -6.31  -3.90
iter:  28 10:16:00 -4309.252041c -6.58  -4.24c
iter:  29 10:16:48 -4309.252052c -6.74  -4.33c
iter:  30 10:18:15 -4309.252045c -7.53c -4.49c

Converged after 30 iterations.

Dipole moment: (-17.217384, -10.523391, -0.027230) |e|*Ang

Energy contributions relative to reference atoms: (reference = -2506488.095795)

Kinetic:       +407.470169
Potential:     -453.325723
External:        +0.000000
XC:            -4262.422700
Entropy (-ST):   -0.551693
Local:           -0.697944
--------------------------
Free energy:   -4309.527891
Extrapolated:  -4309.252045

Showing only first 2 kpts
 Kpt  Band  Eigenvalues  Occupancy
  0   316     -0.47408    1.19061
  0   317     -0.41007    0.87360
  0   318     -0.35243    0.60704
  0   319     -0.26396    0.30496

  1   316     -0.97888    1.99131
  1   317     -0.85623    1.97067
  1   318     -0.73247    1.90239
  1   319     -0.40966    0.87156


Fermi level: -0.43549

No gap

Forces in eV/Ang:
  0 Cu    0.00321    0.00807   -0.22746
  1 Cu    0.08463    0.14761   -0.15008
  2 Cu    0.11566    0.07556   -0.62058
  3 Cu   -0.00489   -0.11239   -0.62595
  4 Cu   -0.08235   -0.04375   -0.09996
  5 Cu    0.01040   -0.00666   -0.00552
  6 Cu    0.03468   -0.01796   -0.01751
  7 Cu    0.00860   -0.03277   -0.06170
  8 Cu    0.00623    0.01162    0.00885
  9 Cu   -0.00441   -0.01298    0.00370
 10 Cu   -0.00209   -0.00167    0.00990
 11 Cu    0.00523   -0.00705   -0.05848
 12 Cu   -0.01325    0.00772   -0.03989
 13 Cu    0.00528    0.01215   -0.00049
 14 Cu    0.01862    0.01081   -0.04928
 15 Cu    0.00544   -0.01352   -0.04923
 16 Cu   -0.05437   -0.03374    0.11142
 17 Cu    0.01750   -0.01202    0.00155
 18 Cu   -0.03538    0.02282    0.02436
 19 Cu   -0.03860   -0.01527    0.06473
 20 Cu    0.06882    0.15161    0.15782
 21 Cu   -0.08751   -0.14675    0.15801
 22 Cu   -0.02650   -0.12373    0.54361
 23 Cu    0.09577   -0.07316    0.20978
 24 Cu   -0.06804   -0.13911   -0.13574
 25 Cu    0.08172   -0.04963   -0.19801
 26 Cu   -0.01015    0.08669   -0.08886
 27 Cu    0.03386    0.01376   -0.06211
 28 Cu    0.01331   -0.00795    0.04141
 29 Cu    0.00325   -0.00658    0.02081
 30 Cu   -0.00727   -0.01568   -0.00769
 31 Cu    0.01028   -0.01512    0.00718
 32 Cu    0.01336    0.06605    0.11259
 33 Cu   -0.00961    0.03876    0.06077
 34 Cu    0.00103   -0.00494    0.21442
 35 Cu    0.10425    0.09369    0.73385
 36 Cu   -0.10355   -0.07491   -0.70415
 37 Cu   -0.09305    0.06767   -0.20185
 38 Cu    0.04899    0.03546   -0.11539
 39 Cu   -0.01876   -0.06784   -0.11609
 40 Cu   -0.01024    0.01053   -0.01109
 41 Cu   -0.00850    0.01142    0.04896
 42 Cu   -0.00415    0.00707   -0.01477
 43 Cu   -0.00682    0.00383    0.05962
 44 Cu    0.08468    0.03862    0.09700
 45 Cu    0.01468   -0.08880    0.09227
 46 Cu   -0.06981    0.04251    0.22932
 47 Cu    0.00949    0.11693    0.63062
 48 Cu    0.02382    0.12462   -0.56127
 49 Cu   -0.01562    0.00952    0.00204
 50 Cu   -0.02169   -0.01089    0.05726
 51 Cu   -0.00152   -0.00268   -0.01166
 52 Cu   -0.00811   -0.00040    0.00821
 53 Cu   -0.11742   -0.07526    0.62763
 54 Cl   -0.01374   -0.01274   -0.49467
 55 Cl    0.01038    0.02188    0.48828
 56 Cl   -0.01735   -0.00935   -1.64670
 57 Cl    0.00718    0.00333    1.64999
 58 Cl    0.00551   -0.03457    1.64154
 59 Cl    0.00437    0.03069   -1.66918

System changes: positions 

Initializing position-dependent things.

Density initialized from wave functions
                                              
                                              
                                              
                                              
                                   Cl         
                                              
                       Clu                    
            Cl                Cu     Cu       
                   Cu     Cu    Cu            
               Cu    Cu     Cu                
                    Cu     Cu    Cu           
               Cu     Cu     Cu               
           Cu    Cu     Cu                    
                Cu     Cu    Cu               
            Cu    Cu     Cu                   
       Cu     Cu    Cu  Cu    Cu     Cu       
                   Cu     Cu    Cu            
               Cu    Cu     Cu                
                    Cu     Cu    Cu           
               Cu     Cu     Cu               
           Cu    Cu     Cu                    
                Cu     Cu    Cu               
            Cu    Cu     Cu                   
                                Cl            
       Cu     Cu    Cul                       
                                              
         Cl                                   
                                              
                                              
                                              
                                              

Positions:
   0 Cu     2.884483   -0.010922   10.010932    ( 0.0000,  0.0000,  0.0000)
   1 Cu     4.183950    2.222151    9.953017    ( 0.0000,  0.0000,  0.0000)
   2 Cu     0.280345    0.012883    9.973899    ( 0.0000,  0.0000,  0.0000)
   3 Cu     1.562590    2.238921    9.978344    ( 0.0000,  0.0000,  0.0000)
   4 Cu     2.897600    3.009292   12.122735    ( 0.0000,  0.0000,  0.0000)
   5 Cu     1.588296    0.750531   12.155431    ( 0.0000,  0.0000,  0.0000)
   6 Cu     5.505068    3.019540   12.122484    ( 0.0000,  0.0000,  0.0000)
   7 Cu     4.204584    0.768873   12.113837    ( 0.0000,  0.0000,  0.0000)
   8 Cu     5.510432    1.512425   14.274445    ( 0.0000,  0.0000,  0.0000)
   9 Cu     6.817308    3.777903   14.273335    ( 0.0000,  0.0000,  0.0000)
  10 Cu     2.895448    1.506939   14.283835    ( 0.0000,  0.0000,  0.0000)
  11 Cu     4.205268    3.778392   14.269745    ( 0.0000,  0.0000,  0.0000)
  12 Cu     2.896998   -0.005433   16.435266    ( 0.0000,  0.0000,  0.0000)
  13 Cu     4.203356    2.264701   16.411200    ( 0.0000,  0.0000,  0.0000)
  14 Cu     0.273035   -0.000602   16.410087    ( 0.0000,  0.0000,  0.0000)
  15 Cu     1.580751    2.266368   16.413133    ( 0.0000,  0.0000,  0.0000)
  16 Cu     2.893336    3.016143   18.546023    ( 0.0000,  0.0000,  0.0000)
  17 Cu     1.576259    0.758376   18.535717    ( 0.0000,  0.0000,  0.0000)
  18 Cu     5.513923    3.019663   18.560274    ( 0.0000,  0.0000,  0.0000)
  19 Cu     4.214917    0.767800   18.572388    ( 0.0000,  0.0000,  0.0000)
  20 Cu     5.489340    1.487904   20.737110    ( 0.0000,  0.0000,  0.0000)
  21 Cu     6.831940    3.811511   20.733863    ( 0.0000,  0.0000,  0.0000)
  22 Cu     2.870116    1.500315   20.705857    ( 0.0000,  0.0000,  0.0000)
  23 Cu     4.188768    3.786765   20.668059    ( 0.0000,  0.0000,  0.0000)
  24 Cu     5.526294    4.545311    9.940538    ( 0.0000,  0.0000,  0.0000)
  25 Cu     2.876140    4.529088   10.009409    ( 0.0000,  0.0000,  0.0000)
  26 Cu     4.212112    5.284874   12.117655    ( 0.0000,  0.0000,  0.0000)
  27 Cu     6.802893    5.269977   12.109183    ( 0.0000,  0.0000,  0.0000)
  28 Cu     8.123217    6.046844   14.248343    ( 0.0000,  0.0000,  0.0000)
  29 Cu     5.516991    6.046013   14.280292    ( 0.0000,  0.0000,  0.0000)
  30 Cu     5.510383    4.530257   16.409501    ( 0.0000,  0.0000,  0.0000)
  31 Cu     2.889662    4.531414   16.407276    ( 0.0000,  0.0000,  0.0000)
  32 Cu     4.206125    5.290328   18.545782    ( 0.0000,  0.0000,  0.0000)
  33 Cu     6.813526    5.269699   18.571704    ( 0.0000,  0.0000,  0.0000)
  34 Cu     8.131457    6.045067   20.671500    ( 0.0000,  0.0000,  0.0000)
  35 Cu     5.511742    6.075352   20.721887    ( 0.0000,  0.0000,  0.0000)
  36 Cu     5.505284   -0.038406    9.967205    ( 0.0000,  0.0000,  0.0000)
  37 Cu     6.828995    2.248724   10.018176    ( 0.0000,  0.0000,  0.0000)
  38 Cu     8.126300    3.024716   12.138543    ( 0.0000,  0.0000,  0.0000)
  39 Cu     6.813524    0.749061   12.138070    ( 0.0000,  0.0000,  0.0000)
  40 Cu     8.131554    1.511612   14.277125    ( 0.0000,  0.0000,  0.0000)
  41 Cu     9.439967    3.776267   14.273533    ( 0.0000,  0.0000,  0.0000)
  42 Cu     5.503683   -0.003906   16.401768    ( 0.0000,  0.0000,  0.0000)
  43 Cu     6.816048    2.264566   16.413938    ( 0.0000,  0.0000,  0.0000)
  44 Cu     8.121582    3.030418   18.563328    ( 0.0000,  0.0000,  0.0000)
  45 Cu     6.807611    0.754336   18.562724    ( 0.0000,  0.0000,  0.0000)
  46 Cu     8.141576    1.505222   20.676979    ( 0.0000,  0.0000,  0.0000)
  47 Cu     9.454435    3.797145   20.708666    ( 0.0000,  0.0000,  0.0000)
  48 Cu     8.145724    4.535166    9.974187    ( 0.0000,  0.0000,  0.0000)
  49 Cu     9.442580    5.280505   12.148362    ( 0.0000,  0.0000,  0.0000)
  50 Cu    10.748228    6.042815   14.272589    ( 0.0000,  0.0000,  0.0000)
  51 Cu     8.125298    4.535804   16.402565    ( 0.0000,  0.0000,  0.0000)
  52 Cu     9.431801    5.289430   18.528935    ( 0.0000,  0.0000,  0.0000)
  53 Cu    10.736923    6.022699   20.709030    ( 0.0000,  0.0000,  0.0000)
  54 Cl     6.145760    2.663027   22.617764    ( 0.0000,  0.0000,  0.0000)
  55 Cl     4.854136    3.369036    8.063691    ( 0.0000,  0.0000,  0.0000)
  56 Cl    10.099340    4.906904   22.891266    ( 0.0000,  0.0000,  0.0000)
  57 Cl     0.916647    1.128077    7.793447    ( 0.0000,  0.0000,  0.0000)
  58 Cl     8.858196    5.739805    7.787484    ( 0.0000,  0.0000,  0.0000)
  59 Cl     2.078049    0.295784   22.929494    ( 0.0000,  0.0000,  0.0000)

Unit cell:
           periodic     x           y           z      points  spacing
  1. axis:    yes    7.851007    0.000000    0.000000    45     0.1511
  2. axis:    yes    3.925503    6.799171    0.000000    45     0.1511
  3. axis:    yes    0.000000    0.000000   30.683867   175     0.1753

  Lengths:   7.851007   7.851006  30.683867
  Angles:   90.000000  90.000000  60.000001

Effective grid spacing dv^(1/3) = 0.1666

     iter     time        total  log10-change:
                         energy  eigst   dens
iter:   1 10:19:49 -4346.178386  -1.25
iter:   2 10:20:36 -4325.939802  -0.82  -1.28
iter:   3 10:21:23 -4311.102594  -1.70  -1.66
iter:   4 10:22:18 -4310.919768  -3.60  -2.31
iter:   5 10:23:22 -4310.760432  -2.70  -2.34
iter:   6 10:24:31 -4310.728226c -3.06  -2.53
iter:   7 10:25:16 -4310.545275c -3.61  -2.62
iter:   8 10:26:02 -4310.521098c -3.76  -2.83
iter:   9 10:27:05 -4310.517527c -4.37  -3.05
iter:  10 10:28:06 -4310.515661c -4.88  -3.16
iter:  11 10:29:20 -4310.515559c -4.27  -3.22
iter:  12 10:30:12 -4310.514958c -5.45  -3.47
iter:  13 10:31:12 -4310.512992c -5.06  -3.55
iter:  14 10:32:07 -4310.512893c -5.94  -3.65
iter:  15 10:32:52 -4310.513363c -5.04  -3.70
iter:  16 10:33:36 -4310.513019c -6.54  -3.97
iter:  17 10:34:20 -4310.512554c -5.76  -4.08c
iter:  18 10:35:04 -4310.512579c -7.22  -4.28c
iter:  19 10:35:48 -4310.512560c -6.89  -4.34c
iter:  20 10:36:44 -4310.512563c -6.26  -4.47c
iter:  21 10:37:28 -4310.512548c -6.99  -4.50c
iter:  22 10:38:12 -4310.512546c -7.35  -4.71c
iter:  23 10:39:05 -4310.512543c -8.48c -4.96c

Converged after 23 iterations.

Dipole moment: (-18.104034, -10.786345, -0.023525) |e|*Ang

Energy contributions relative to reference atoms: (reference = -2506488.095795)

Kinetic:       +414.197738
Potential:     -458.819967
External:        +0.000000
XC:            -4264.876136
Entropy (-ST):   -0.531261
Local:           -0.748548
--------------------------
Free energy:   -4310.778173
Extrapolated:  -4310.512543

Showing only first 2 kpts
 Kpt  Band  Eigenvalues  Occupancy
  0   316     -0.14340    1.21482
  0   317     -0.06952    0.84994
  0   318     -0.01147    0.58517
  0   319      0.10091    0.23700

  1   316     -0.65905    1.99258
  1   317     -0.52389    1.97163
  1   318     -0.38591    1.89182
  1   319     -0.07483    0.87601


Fermi level: -0.09976

No gap

Forces in eV/Ang:
  0 Cu   -0.00033    0.00522   -0.01431
  1 Cu   -0.04550   -0.08198    0.17821
  2 Cu   -0.00196   -0.05744   -0.27343
  3 Cu    0.04679    0.04875   -0.28547
  4 Cu   -0.07324   -0.03721   -0.14888
  5 Cu   -0.01391    0.00710   -0.10466
  6 Cu    0.02151   -0.01314   -0.01709
  7 Cu    0.03716   -0.02783   -0.13768
  8 Cu    0.00906    0.00303   -0.01677
  9 Cu    0.00164   -0.01098   -0.02112
 10 Cu    0.00432    0.00208   -0.02328
 11 Cu   -0.00635   -0.00029   -0.07497
 12 Cu   -0.00199    0.00004    0.00037
 13 Cu   -0.00226    0.00868    0.01986
 14 Cu    0.00518    0.00351   -0.00272
 15 Cu    0.00092   -0.00341   -0.00304
 16 Cu   -0.05306   -0.02996    0.20533
 17 Cu    0.01393   -0.02175    0.10996
 18 Cu   -0.02091    0.01458    0.02026
 19 Cu   -0.03280    0.01014    0.12623
 20 Cu   -0.06778   -0.09294   -0.16888
 21 Cu    0.05022    0.08800   -0.17670
 22 Cu    0.02570    0.01450    0.26878
 23 Cu    0.05494   -0.04578    0.00354
 24 Cu    0.06508    0.09231    0.17589
 25 Cu    0.04675   -0.02543    0.00831
 26 Cu   -0.00932    0.08069   -0.14256
 27 Cu    0.03560   -0.00757   -0.12237
 28 Cu    0.00208   -0.00033   -0.00171
 29 Cu   -0.00033   -0.01058   -0.01788
 30 Cu   -0.00995   -0.00473    0.01474
 31 Cu    0.01842   -0.01299    0.05023
 32 Cu    0.01635    0.06780    0.22404
 33 Cu   -0.04137    0.02878    0.14242
 34 Cu   -0.00163    0.00136    0.00861
 35 Cu   -0.00902   -0.05837    0.32014
 36 Cu    0.02250    0.07227   -0.28348
 37 Cu   -0.05649    0.04577   -0.00151
 38 Cu    0.05079    0.03102   -0.20834
 39 Cu   -0.01794   -0.06929   -0.21907
 40 Cu   -0.01924    0.00994   -0.05542
 41 Cu   -0.00250    0.00109   -0.00163
 42 Cu   -0.00080    0.00990    0.02053
 43 Cu    0.00497   -0.00302    0.07373
 44 Cu    0.07230    0.03291    0.15537
 45 Cu    0.00968   -0.07919    0.15272
 46 Cu   -0.03952    0.02520    0.01219
 47 Cu   -0.04536   -0.04884    0.28819
 48 Cu   -0.02891   -0.02693   -0.25914
 49 Cu   -0.01524    0.01993   -0.10816
 50 Cu   -0.00732   -0.00461    0.00407
 51 Cu   -0.00648   -0.00466    0.02034
 52 Cu    0.01581   -0.01041    0.10050
 53 Cu   -0.00037    0.05594    0.27704
 54 Cl   -0.01772   -0.00525    0.13139
 55 Cl    0.01456    0.01665   -0.13284
 56 Cl   -0.01486   -0.00441   -1.11205
 57 Cl    0.00855    0.00062    1.10414
 58 Cl   -0.00453   -0.06568    1.08218
 59 Cl    0.01086    0.06735   -1.16691

System changes: positions 

Initializing position-dependent things.

Density initialized from wave functions
                                              
                                              
                                              
                                              
                                   Cl         
                                              
                       Clu    Cu     Cu       
            Cl            Cu    Cu            
                   Cu                         
               Cu   CCu    CCu   Cu           
                                              
               Cu     Cu     Cu               
           Cu   CCu    CCu   Cu               
                                              
            Cu    Cu    CCu   Cu     Cu       
       Cu     Cu   CCu    Cu    Cu            
                                              
               Cu   CCu    CCu   Cu           
               Cu     Cu     Cu               
                                              
           Cu   CCu    CCu   Cu               
                                              
            Cu    Cu     Cu     Cl            
       Cu     Cu    Cul                       
                                              
         Cl                                   
                                              
                                              
                                              
                                              

Positions:
   0 Cu     2.884868   -0.009956    9.983683    ( 0.0000,  0.0000,  0.0000)
   1 Cu     4.194088    2.239835    9.935037    ( 0.0000,  0.0000,  0.0000)
   2 Cu     0.294201    0.021935    9.899554    ( 0.0000,  0.0000,  0.0000)
   3 Cu     1.562003    2.225457    9.903356    ( 0.0000,  0.0000,  0.0000)
   4 Cu     2.887735    3.004050   12.110760    ( 0.0000,  0.0000,  0.0000)
   5 Cu     1.589542    0.749734   12.154769    ( 0.0000,  0.0000,  0.0000)
   6 Cu     5.509222    3.017388   12.120386    ( 0.0000,  0.0000,  0.0000)
   7 Cu     4.205615    0.764948   12.106446    ( 0.0000,  0.0000,  0.0000)
   8 Cu     5.511178    1.513817   14.275505    ( 0.0000,  0.0000,  0.0000)
   9 Cu     6.816779    3.776348   14.273779    ( 0.0000,  0.0000,  0.0000)
  10 Cu     2.895199    1.506739   14.285021    ( 0.0000,  0.0000,  0.0000)
  11 Cu     4.205894    3.777548   14.262740    ( 0.0000,  0.0000,  0.0000)
  12 Cu     2.895410   -0.004509   16.430486    ( 0.0000,  0.0000,  0.0000)
  13 Cu     4.203988    2.266157   16.411142    ( 0.0000,  0.0000,  0.0000)
  14 Cu     0.275265    0.000694   16.404183    ( 0.0000,  0.0000,  0.0000)
  15 Cu     1.581404    2.264748   16.407235    ( 0.0000,  0.0000,  0.0000)
  16 Cu     2.886821    3.012102   18.559370    ( 0.0000,  0.0000,  0.0000)
  17 Cu     1.578356    0.756936   18.535903    ( 0.0000,  0.0000,  0.0000)
  18 Cu     5.509685    3.022396   18.563192    ( 0.0000,  0.0000,  0.0000)
  19 Cu     4.210292    0.765971   18.580142    ( 0.0000,  0.0000,  0.0000)
  20 Cu     5.497586    1.506067   20.756017    ( 0.0000,  0.0000,  0.0000)
  21 Cu     6.821456    3.793931   20.752793    ( 0.0000,  0.0000,  0.0000)
  22 Cu     2.866940    1.485492   20.770981    ( 0.0000,  0.0000,  0.0000)
  23 Cu     4.200242    3.778001   20.693191    ( 0.0000,  0.0000,  0.0000)
  24 Cu     5.518143    4.528647    9.924277    ( 0.0000,  0.0000,  0.0000)
  25 Cu     2.885929    4.523143    9.985687    ( 0.0000,  0.0000,  0.0000)
  26 Cu     4.210897    5.295260   12.107011    ( 0.0000,  0.0000,  0.0000)
  27 Cu     6.806950    5.271626   12.101743    ( 0.0000,  0.0000,  0.0000)
  28 Cu     8.124810    6.045892   14.253303    ( 0.0000,  0.0000,  0.0000)
  29 Cu     5.517379    6.045224   14.282786    ( 0.0000,  0.0000,  0.0000)
  30 Cu     5.509511    4.528378   16.408580    ( 0.0000,  0.0000,  0.0000)
  31 Cu     2.890894    4.529603   16.408136    ( 0.0000,  0.0000,  0.0000)
  32 Cu     4.207725    5.298240   18.559271    ( 0.0000,  0.0000,  0.0000)
  33 Cu     6.812374    5.274342   18.578983    ( 0.0000,  0.0000,  0.0000)
  34 Cu     8.131580    6.044475   20.697188    ( 0.0000,  0.0000,  0.0000)
  35 Cu     5.524231    6.086575   20.809801    ( 0.0000,  0.0000,  0.0000)
  36 Cu     5.492880   -0.047381    9.882849    ( 0.0000,  0.0000,  0.0000)
  37 Cu     6.817847    2.256830    9.993994    ( 0.0000,  0.0000,  0.0000)
  38 Cu     8.132168    3.028965   12.124720    ( 0.0000,  0.0000,  0.0000)
  39 Cu     6.811277    0.740933   12.124161    ( 0.0000,  0.0000,  0.0000)
  40 Cu     8.130327    1.512874   14.275797    ( 0.0000,  0.0000,  0.0000)
  41 Cu     9.438950    3.777635   14.279399    ( 0.0000,  0.0000,  0.0000)
  42 Cu     5.503186   -0.003060   16.399999    ( 0.0000,  0.0000,  0.0000)
  43 Cu     6.815232    2.265025   16.421080    ( 0.0000,  0.0000,  0.0000)
  44 Cu     8.131727    3.035044   18.574950    ( 0.0000,  0.0000,  0.0000)
  45 Cu     6.809369    0.743699   18.573778    ( 0.0000,  0.0000,  0.0000)
  46 Cu     8.133214    1.510315   20.704451    ( 0.0000,  0.0000,  0.0000)
  47 Cu     9.455572    3.811153   20.784214    ( 0.0000,  0.0000,  0.0000)
  48 Cu     8.148577    4.550096    9.906946    ( 0.0000,  0.0000,  0.0000)
  49 Cu     9.440709    5.281646   12.148606    ( 0.0000,  0.0000,  0.0000)
  50 Cu    10.745630    6.041510   14.279448    ( 0.0000,  0.0000,  0.0000)
  51 Cu     8.125115    4.535484   16.401168    ( 0.0000,  0.0000,  0.0000)
  52 Cu     9.430830    5.289383   18.529918    ( 0.0000,  0.0000,  0.0000)
  53 Cu    10.722857    6.013683   20.784219    ( 0.0000,  0.0000,  0.0000)
  54 Cl     6.144115    2.661500   22.558504    ( 0.0000,  0.0000,  0.0000)
  55 Cl     4.855379    3.371657    8.122186    ( 0.0000,  0.0000,  0.0000)
  56 Cl    10.097262    4.905784   22.693993    ( 0.0000,  0.0000,  0.0000)
  57 Cl     0.917507    1.128476    7.991113    ( 0.0000,  0.0000,  0.0000)
  58 Cl     8.858857    5.735664    7.984139    ( 0.0000,  0.0000,  0.0000)
  59 Cl     2.078572    0.299461   22.729529    ( 0.0000,  0.0000,  0.0000)

Unit cell:
           periodic     x           y           z      points  spacing
  1. axis:    yes    7.851007    0.000000    0.000000    45     0.1511
  2. axis:    yes    3.925503    6.799171    0.000000    45     0.1511
  3. axis:    yes    0.000000    0.000000   30.683867   175     0.1753

  Lengths:   7.851007   7.851006  30.683867
  Angles:   90.000000  90.000000  60.000001

Effective grid spacing dv^(1/3) = 0.1666

     iter     time        total  log10-change:
                         energy  eigst   dens
iter:   1 10:40:26 -4353.628674  -1.07
iter:   2 10:41:23 -4323.705459  -0.81  -1.28
iter:   3 10:42:08 -4311.362006  -1.75  -1.71
iter:   4 10:42:54 -4311.184914  -3.05  -2.25
iter:   5 10:43:39 -4311.000513  -3.52  -2.29
iter:   6 10:44:29 -4310.868913c -2.47  -2.35
iter:   7 10:45:15 -4310.723351c -3.35  -2.60
iter:   8 10:46:00 -4310.700641c -3.91  -2.85
iter:   9 10:46:45 -4310.702832c -3.84  -2.97
iter:  10 10:47:44 -4310.703814c -4.50  -3.16
iter:  11 10:48:38 -4310.696013c -4.42  -3.15
iter:  12 10:49:14 -4310.693830c -4.97  -3.29
iter:  13 10:49:54 -4310.691477c -4.80  -3.45
iter:  14 10:50:33 -4310.691481c -5.72  -3.69
iter:  15 10:51:12 -4310.691252c -5.80  -3.76
iter:  16 10:51:57 -4310.691276c -6.01  -3.98
iter:  17 10:52:42 -4310.691263c -6.56  -4.15c
iter:  18 10:53:28 -4310.691247c -7.14  -4.17c
iter:  19 10:54:26 -4310.691210c -6.69  -4.25c
iter:  20 10:55:10 -4310.691207c -6.76  -4.39c
iter:  21 10:55:54 -4310.691235c -6.61  -4.42c
iter:  22 10:56:39 -4310.691213c -7.64c -4.51c

Converged after 22 iterations.

Dipole moment: (-19.145309, -11.081214, -0.017348) |e|*Ang

Energy contributions relative to reference atoms: (reference = -2506488.095795)

Kinetic:       +436.362393
Potential:     -476.379289
External:        +0.000000
XC:            -4269.626140
Entropy (-ST):   -0.503889
Local:           -0.796233
--------------------------
Free energy:   -4310.943157
Extrapolated:  -4310.691213

Showing only first 2 kpts
 Kpt  Band  Eigenvalues  Occupancy
  0   316      0.27474    1.23268
  0   317      0.35151    0.85422
  0   318      0.41228    0.57756
  0   319      0.57011    0.15460

  1   316     -0.23784    1.99263
  1   317     -0.08900    1.96776
  1   318      0.06774    1.85435
  1   319      0.35007    0.86126


Fermi level: 0.32214

No gap

Forces in eV/Ang:
  0 Cu   -0.00574    0.00083    0.28301
  1 Cu   -0.24306   -0.42493    0.65022
  2 Cu   -0.28451   -0.49095    0.51063
  3 Cu    0.27025    0.50387    0.48104
  4 Cu   -0.05209   -0.02718   -0.20000
  5 Cu   -0.03124    0.01502   -0.18013
  6 Cu    0.00815   -0.00909   -0.01508
  7 Cu    0.05949   -0.00904   -0.20575
  8 Cu    0.01025   -0.00676   -0.04087
  9 Cu    0.00685   -0.00771   -0.04403
 10 Cu    0.01198    0.00944   -0.05613
 11 Cu   -0.01958    0.00750   -0.08998
 12 Cu    0.00998   -0.00795    0.04752
 13 Cu   -0.00858    0.00432    0.04337
 14 Cu   -0.01104   -0.00372    0.05370
 15 Cu   -0.00501    0.00870    0.05171
 16 Cu   -0.03900   -0.02716    0.28699
 17 Cu    0.00226   -0.01854    0.19178
 18 Cu   -0.00619    0.00694    0.01767
 19 Cu   -0.01726    0.03906    0.18528
 20 Cu   -0.27419   -0.46592   -0.64593
 21 Cu    0.26020    0.44032   -0.65908
 22 Cu    0.19185    0.32759   -0.23622
 23 Cu    0.02395   -0.02726   -0.26099
 24 Cu    0.26449    0.44131    0.62723
 25 Cu    0.02372   -0.00995    0.27620
 26 Cu   -0.00479    0.06297   -0.19679
 27 Cu    0.02655   -0.03270   -0.17991
 28 Cu   -0.01029    0.00736   -0.04889
 29 Cu   -0.00784   -0.01798   -0.05735
 30 Cu   -0.01122    0.00675    0.04055
 31 Cu    0.02645   -0.00946    0.09997
 32 Cu    0.01894    0.05479    0.31451
 33 Cu   -0.06532    0.00520    0.21450
 34 Cu   -0.00596    0.01159   -0.27729
 35 Cu   -0.32124   -0.63081   -0.77487
 36 Cu    0.37024    0.62326    0.77900
 37 Cu   -0.03114    0.03332    0.25769
 38 Cu    0.04052    0.02673   -0.28901
 39 Cu   -0.01758   -0.05686   -0.30380
 40 Cu   -0.02895    0.00804   -0.10306
 41 Cu    0.00442   -0.01245   -0.05602
 42 Cu    0.00551    0.01496    0.06166
 43 Cu    0.01784   -0.01069    0.08977
 44 Cu    0.04710    0.02297    0.21487
 45 Cu    0.00102   -0.05726    0.21290
 46 Cu   -0.02612    0.02056   -0.27185
 47 Cu   -0.27565   -0.51516   -0.49100
 48 Cu   -0.21015   -0.39625    0.32932
 49 Cu   -0.00548    0.01834   -0.18791
 50 Cu    0.01066    0.00244   -0.05431
 51 Cu   -0.01210   -0.00908    0.05755
 52 Cu    0.03254   -0.01418    0.17327
 53 Cu    0.27873    0.48512   -0.50580
 54 Cl   -0.02184    0.00927    1.11513
 55 Cl    0.01947    0.00931   -1.08578
 56 Cl   -0.00535    0.00435    0.46335
 57 Cl    0.00957    0.00371   -0.46426
 58 Cl   -0.11116   -0.28362   -0.57370
 59 Cl    0.11337    0.34789    0.43336

System changes: positions 

Initializing position-dependent things.

Density initialized from wave functions
                                              
                                              
                                              
                                              
                                   Cl         
                                              
                       Clu    Cu     Cu       
            Cl            Cu    Cu            
                   Cu                         
               Cu   CCu    CCu   Cu           
                                              
               Cu     Cu     Cu               
           Cu   CCu    CCu   Cu               
                                              
            Cu    Cu    CCu   Cu     Cu       
       Cu     Cu   CCu    Cu    Cu            
                                              
               Cu   CCu    CCu   Cu           
               Cu     Cu     Cu               
                                              
           Cu   CCu    CCu   Cu               
                         Cu                   
            Cu    Cu            Cl            
       Cu     Cu    Cul                       
                                              
         Cl                                   
                                              
                                              
                                              
                                              

Positions:
   0 Cu     2.884681   -0.010424    9.996889    ( 0.0000,  0.0000,  0.0000)
   1 Cu     4.189175    2.231265    9.943751    ( 0.0000,  0.0000,  0.0000)
   2 Cu     0.287486    0.017548    9.935586    ( 0.0000,  0.0000,  0.0000)
   3 Cu     1.562287    2.231982    9.939699    ( 0.0000,  0.0000,  0.0000)
   4 Cu     2.892516    3.006590   12.116564    ( 0.0000,  0.0000,  0.0000)
   5 Cu     1.588938    0.750121   12.155090    ( 0.0000,  0.0000,  0.0000)
   6 Cu     5.507209    3.018431   12.121403    ( 0.0000,  0.0000,  0.0000)
   7 Cu     4.205115    0.766851   12.110028    ( 0.0000,  0.0000,  0.0000)
   8 Cu     5.510816    1.513142   14.274991    ( 0.0000,  0.0000,  0.0000)
   9 Cu     6.817036    3.777101   14.273564    ( 0.0000,  0.0000,  0.0000)
  10 Cu     2.895320    1.506836   14.284446    ( 0.0000,  0.0000,  0.0000)
  11 Cu     4.205590    3.777957   14.266135    ( 0.0000,  0.0000,  0.0000)
  12 Cu     2.896180   -0.004957   16.432803    ( 0.0000,  0.0000,  0.0000)
  13 Cu     4.203682    2.265452   16.411171    ( 0.0000,  0.0000,  0.0000)
  14 Cu     0.274184    0.000066   16.407044    ( 0.0000,  0.0000,  0.0000)
  15 Cu     1.581087    2.265533   16.410093    ( 0.0000,  0.0000,  0.0000)
  16 Cu     2.889979    3.014060   18.552901    ( 0.0000,  0.0000,  0.0000)
  17 Cu     1.577340    0.757634   18.535813    ( 0.0000,  0.0000,  0.0000)
  18 Cu     5.511739    3.021071   18.561778    ( 0.0000,  0.0000,  0.0000)
  19 Cu     4.212533    0.766857   18.576384    ( 0.0000,  0.0000,  0.0000)
  20 Cu     5.493590    1.497264   20.746854    ( 0.0000,  0.0000,  0.0000)
  21 Cu     6.826537    3.802451   20.743619    ( 0.0000,  0.0000,  0.0000)
  22 Cu     2.868479    1.492676   20.739418    ( 0.0000,  0.0000,  0.0000)
  23 Cu     4.194681    3.782249   20.681011    ( 0.0000,  0.0000,  0.0000)
  24 Cu     5.522093    4.536723    9.932158    ( 0.0000,  0.0000,  0.0000)
  25 Cu     2.881185    4.526024    9.997184    ( 0.0000,  0.0000,  0.0000)
  26 Cu     4.211486    5.290227   12.112170    ( 0.0000,  0.0000,  0.0000)
  27 Cu     6.804984    5.270827   12.105349    ( 0.0000,  0.0000,  0.0000)
  28 Cu     8.124038    6.046353   14.250899    ( 0.0000,  0.0000,  0.0000)
  29 Cu     5.517191    6.045606   14.281577    ( 0.0000,  0.0000,  0.0000)
  30 Cu     5.509934    4.529289   16.409026    ( 0.0000,  0.0000,  0.0000)
  31 Cu     2.890297    4.530481   16.407719    ( 0.0000,  0.0000,  0.0000)
  32 Cu     4.206950    5.294406   18.552734    ( 0.0000,  0.0000,  0.0000)
  33 Cu     6.812932    5.272092   18.575455    ( 0.0000,  0.0000,  0.0000)
  34 Cu     8.131520    6.044762   20.684739    ( 0.0000,  0.0000,  0.0000)
  35 Cu     5.518178    6.081136   20.767193    ( 0.0000,  0.0000,  0.0000)
  36 Cu     5.498892   -0.043031    9.923732    ( 0.0000,  0.0000,  0.0000)
  37 Cu     6.823250    2.252902   10.005714    ( 0.0000,  0.0000,  0.0000)
  38 Cu     8.129324    3.026906   12.131419    ( 0.0000,  0.0000,  0.0000)
  39 Cu     6.812366    0.744872   12.130902    ( 0.0000,  0.0000,  0.0000)
  40 Cu     8.130922    1.512262   14.276441    ( 0.0000,  0.0000,  0.0000)
  41 Cu     9.439443    3.776972   14.276556    ( 0.0000,  0.0000,  0.0000)
  42 Cu     5.503427   -0.003470   16.400857    ( 0.0000,  0.0000,  0.0000)
  43 Cu     6.815628    2.264803   16.417619    ( 0.0000,  0.0000,  0.0000)
  44 Cu     8.126810    3.032802   18.569317    ( 0.0000,  0.0000,  0.0000)
  45 Cu     6.808517    0.748854   18.568421    ( 0.0000,  0.0000,  0.0000)
  46 Cu     8.137267    1.507847   20.691136    ( 0.0000,  0.0000,  0.0000)
  47 Cu     9.455021    3.804364   20.747599    ( 0.0000,  0.0000,  0.0000)
  48 Cu     8.147194    4.542860    9.939535    ( 0.0000,  0.0000,  0.0000)
  49 Cu     9.441616    5.281093   12.148488    ( 0.0000,  0.0000,  0.0000)
  50 Cu    10.746889    6.042142   14.276124    ( 0.0000,  0.0000,  0.0000)
  51 Cu     8.125203    4.535639   16.401845    ( 0.0000,  0.0000,  0.0000)
  52 Cu     9.431301    5.289406   18.529442    ( 0.0000,  0.0000,  0.0000)
  53 Cu    10.729674    6.018052   20.747778    ( 0.0000,  0.0000,  0.0000)
  54 Cl     6.144912    2.662240   22.587225    ( 0.0000,  0.0000,  0.0000)
  55 Cl     4.854777    3.370387    8.093836    ( 0.0000,  0.0000,  0.0000)
  56 Cl    10.098269    4.906326   22.789603    ( 0.0000,  0.0000,  0.0000)
  57 Cl     0.917090    1.128283    7.895313    ( 0.0000,  0.0000,  0.0000)
  58 Cl     8.858537    5.737671    7.888829    ( 0.0000,  0.0000,  0.0000)
  59 Cl     2.078318    0.297679   22.826443    ( 0.0000,  0.0000,  0.0000)

Unit cell:
           periodic     x           y           z      points  spacing
  1. axis:    yes    7.851007    0.000000    0.000000    45     0.1511
  2. axis:    yes    3.925503    6.799171    0.000000    45     0.1511
  3. axis:    yes    0.000000    0.000000   30.683867   175     0.1753

  Lengths:   7.851007   7.851006  30.683867
  Angles:   90.000000  90.000000  60.000001

Effective grid spacing dv^(1/3) = 0.1666

     iter     time        total  log10-change:
                         energy  eigst   dens
iter:   1 10:57:48 -4319.471841  -1.44
iter:   2 10:58:32 -4311.798300  -1.78  -1.75
iter:   3 10:59:22 -4311.261303  -2.99  -2.28
iter:   4 11:00:07 -4311.293461  -2.45  -2.42
iter:   5 11:00:52 -4310.954772  -3.23  -2.43
iter:   6 11:01:56 -4310.899029  -3.35  -2.72
iter:   7 11:02:46 -4310.889984c -3.41  -2.77
iter:   8 11:03:32 -4310.871316c -4.58  -3.15
iter:   9 11:04:18 -4310.858608c -3.82  -3.22
iter:  10 11:05:04 -4310.858539c -4.92  -3.36
iter:  11 11:05:50 -4310.856059c -5.21  -3.49
iter:  12 11:06:36 -4310.855615c -5.10  -3.56
iter:  13 11:07:22 -4310.856032c -5.26  -3.62
iter:  14 11:08:06 -4310.854994c -5.22  -3.71
iter:  15 11:08:52 -4310.854942c -6.07  -3.87
iter:  16 11:09:38 -4310.854736c -5.60  -4.01c
iter:  17 11:10:28 -4310.854678c -7.00  -4.25c
iter:  18 11:11:24 -4310.854671c -6.79  -4.30c
iter:  19 11:12:09 -4310.854709c -6.86  -4.41c
iter:  20 11:13:07 -4310.854699c -7.58c -4.46c

Converged after 20 iterations.

Dipole moment: (-18.643780, -10.941246, -0.022012) |e|*Ang

Energy contributions relative to reference atoms: (reference = -2506488.095795)

Kinetic:       +423.790453
Potential:     -466.511837
External:        +0.000000
XC:            -4267.070119
Entropy (-ST):   -0.517692
Local:           -0.804350
--------------------------
Free energy:   -4311.113545
Extrapolated:  -4310.854699

Showing only first 2 kpts
 Kpt  Band  Eigenvalues  Occupancy
  0   316      0.07291    1.22596
  0   317      0.14976    0.84693
  0   318      0.20866    0.57909
  0   319      0.34246    0.19320

  1   316     -0.44303    1.99277
  1   317     -0.30076    1.97035
  1   318     -0.15353    1.87689
  1   319      0.14463    0.87205


Fermi level: 0.11890

No gap

Forces in eV/Ang:
  0 Cu   -0.00252    0.00336    0.13048
  1 Cu   -0.14317   -0.25250    0.40828
  2 Cu   -0.11849   -0.22390    0.05363
  3 Cu    0.12855    0.22937    0.03474
  4 Cu   -0.06447   -0.03314   -0.17597
  5 Cu   -0.02423    0.01235   -0.14831
  6 Cu    0.01472   -0.01131   -0.01095
  7 Cu    0.05022   -0.01985   -0.17725
  8 Cu    0.00932   -0.00210   -0.02499
  9 Cu    0.00432   -0.00878   -0.02890
 10 Cu    0.00880    0.00578   -0.03572
 11 Cu   -0.01321    0.00384   -0.08001
 12 Cu    0.00451   -0.00423    0.02292
 13 Cu   -0.00518    0.00634    0.03141
 14 Cu   -0.00300    0.00037    0.02437
 15 Cu   -0.00255    0.00231    0.02369
 16 Cu   -0.04800   -0.02834    0.25336
 17 Cu    0.00942   -0.02236    0.16174
 18 Cu   -0.01294    0.01065    0.01708
 19 Cu   -0.02636    0.02494    0.15965
 20 Cu   -0.16987   -0.27785   -0.40042
 21 Cu    0.15435    0.26399   -0.41167
 22 Cu    0.09177    0.14879    0.04324
 23 Cu    0.03389   -0.03172   -0.12766
 24 Cu    0.16364    0.26503    0.39541
 25 Cu    0.02972   -0.01391    0.14160
 26 Cu   -0.00729    0.07413   -0.17169
 27 Cu    0.03258   -0.02033   -0.15496
 28 Cu   -0.00502    0.00388   -0.02200
 29 Cu   -0.00369   -0.01498   -0.03387
 30 Cu   -0.01062    0.00056    0.02727
 31 Cu    0.02236   -0.01148    0.07366
 32 Cu    0.01771    0.06362    0.27890
 33 Cu   -0.05543    0.01861    0.18453
 34 Cu   -0.00433    0.00608   -0.12917
 35 Cu   -0.13195   -0.26917   -0.11311
 36 Cu    0.15967    0.27603    0.14446
 37 Cu   -0.03813    0.03528    0.12765
 38 Cu    0.04761    0.02887   -0.25559
 39 Cu   -0.01767   -0.06503   -0.26991
 40 Cu   -0.02452    0.00936   -0.07555
 41 Cu    0.00113   -0.00605   -0.02467
 42 Cu    0.00156    0.01242    0.04078
 43 Cu    0.01126   -0.00703    0.08146
 44 Cu    0.06142    0.02890    0.18766
 45 Cu    0.00567   -0.07015    0.18574
 46 Cu   -0.02688    0.01880   -0.12803
 47 Cu   -0.13047   -0.23474   -0.03579
 48 Cu   -0.09870   -0.18042   -0.00175
 49 Cu   -0.01162    0.02114   -0.15604
 50 Cu    0.00211   -0.00110   -0.02055
 51 Cu   -0.00957   -0.00645    0.03854
 52 Cu    0.02625   -0.01363    0.14550
 53 Cu    0.11567    0.22190   -0.05057
 54 Cl   -0.01971    0.00188    0.61029
 55 Cl    0.01687    0.01254   -0.60300
 56 Cl   -0.01211    0.00041   -0.46076
 57 Cl    0.01054   -0.00034    0.44945
 58 Cl   -0.03933   -0.13537    0.39766
 59 Cl    0.04203    0.15666   -0.51880

System changes: positions 

Initializing position-dependent things.

Density initialized from wave functions
                                              
                                              
                                              
                                              
                                   Cl         
                                              
                       Clu    Cu     Cu       
            Cl            Cu    Cu            
                   Cu                         
               Cu   CCu    CCu   Cu           
                                              
               Cu     Cu     Cu               
           Cu   CCu    CCu   Cu               
                                              
            Cu    Cu    CCu   Cu     Cu       
       Cu     Cu   CCu    Cu    Cu            
                                              
               Cu   CCu    CCu   Cu           
                      Cu     Cu               
               Cu                             
           Cu   CCu    CCu   Cu               
                                              
            Cu    Cu     Cu     Cl            
       Cu     Cu    Cul                       
                                              
         Cl                                   
                                              
                                              
                                              
                                              

Positions:
   0 Cu     2.884524   -0.009739   10.002700    ( 0.0000,  0.0000,  0.0000)
   1 Cu     4.176449    2.208758    9.983555    ( 0.0000,  0.0000,  0.0000)
   2 Cu     0.278710   -0.004541    9.917683    ( 0.0000,  0.0000,  0.0000)
   3 Cu     1.576451    2.253264    9.919481    ( 0.0000,  0.0000,  0.0000)
   4 Cu     2.882148    3.001207   12.093070    ( 0.0000,  0.0000,  0.0000)
   5 Cu     1.586633    0.751243   12.138320    ( 0.0000,  0.0000,  0.0000)
   6 Cu     5.510187    3.016477   12.119506    ( 0.0000,  0.0000,  0.0000)
   7 Cu     4.211053    0.763373   12.087864    ( 0.0000,  0.0000,  0.0000)
   8 Cu     5.512097    1.513356   14.272542    ( 0.0000,  0.0000,  0.0000)
   9 Cu     6.817348    3.775622   14.270480    ( 0.0000,  0.0000,  0.0000)
  10 Cu     2.896222    1.507417   14.280839    ( 0.0000,  0.0000,  0.0000)
  11 Cu     4.204316    3.778115   14.254951    ( 0.0000,  0.0000,  0.0000)
  12 Cu     2.896173   -0.005132   16.433826    ( 0.0000,  0.0000,  0.0000)
  13 Cu     4.203307    2.266627   16.414658    ( 0.0000,  0.0000,  0.0000)
  14 Cu     0.274565    0.000523   16.407868    ( 0.0000,  0.0000,  0.0000)
  15 Cu     1.581013    2.265270   16.410843    ( 0.0000,  0.0000,  0.0000)
  16 Cu     2.882526    3.009598   18.585476    ( 0.0000,  0.0000,  0.0000)
  17 Cu     1.579066    0.754675   18.553930    ( 0.0000,  0.0000,  0.0000)
  18 Cu     5.508933    3.023138   18.564623    ( 0.0000,  0.0000,  0.0000)
  19 Cu     4.208104    0.769053   18.596700    ( 0.0000,  0.0000,  0.0000)
  20 Cu     5.477274    1.472081   20.708225    ( 0.0000,  0.0000,  0.0000)
  21 Cu     6.840400    3.826274   20.703742    ( 0.0000,  0.0000,  0.0000)
  22 Cu     2.877705    1.504524   20.765173    ( 0.0000,  0.0000,  0.0000)
  23 Cu     4.202152    3.775891   20.674834    ( 0.0000,  0.0000,  0.0000)
  24 Cu     5.537743    4.560957    9.971078    ( 0.0000,  0.0000,  0.0000)
  25 Cu     2.887649    4.522560   10.005370    ( 0.0000,  0.0000,  0.0000)
  26 Cu     4.210282    5.301840   12.089581    ( 0.0000,  0.0000,  0.0000)
  27 Cu     6.809925    5.269086   12.085658    ( 0.0000,  0.0000,  0.0000)
  28 Cu     8.123990    6.046481   14.250037    ( 0.0000,  0.0000,  0.0000)
  29 Cu     5.516904    6.043681   14.278597    ( 0.0000,  0.0000,  0.0000)
  30 Cu     5.508468    4.528748   16.411775    ( 0.0000,  0.0000,  0.0000)
  31 Cu     2.893190    4.528617   16.416219    ( 0.0000,  0.0000,  0.0000)
  32 Cu     4.209442    5.304051   18.588206    ( 0.0000,  0.0000,  0.0000)
  33 Cu     6.806373    5.275662   18.598396    ( 0.0000,  0.0000,  0.0000)
  34 Cu     8.131077    6.045251   20.678572    ( 0.0000,  0.0000,  0.0000)
  35 Cu     5.507460    6.054692   20.782817    ( 0.0000,  0.0000,  0.0000)
  36 Cu     5.512732   -0.015098    9.912753    ( 0.0000,  0.0000,  0.0000)
  37 Cu     6.815411    2.259445   10.012194    ( 0.0000,  0.0000,  0.0000)
  38 Cu     8.136525    3.031495   12.098442    ( 0.0000,  0.0000,  0.0000)
  39 Cu     6.809672    0.735000   12.096299    ( 0.0000,  0.0000,  0.0000)
  40 Cu     8.127790    1.513713   14.267580    ( 0.0000,  0.0000,  0.0000)
  41 Cu     9.439242    3.776736   14.275687    ( 0.0000,  0.0000,  0.0000)
  42 Cu     5.503441   -0.001811   16.404841    ( 0.0000,  0.0000,  0.0000)
  43 Cu     6.816623    2.264165   16.429008    ( 0.0000,  0.0000,  0.0000)
  44 Cu     8.136927    3.037514   18.594003    ( 0.0000,  0.0000,  0.0000)
  45 Cu     6.809714    0.737604   18.592710    ( 0.0000,  0.0000,  0.0000)
  46 Cu     8.131579    1.511582   20.685670    ( 0.0000,  0.0000,  0.0000)
  47 Cu     9.440820    3.782659   20.767881    ( 0.0000,  0.0000,  0.0000)
  48 Cu     8.137091    4.527516    9.917732    ( 0.0000,  0.0000,  0.0000)
  49 Cu     9.439717    5.283820   12.131145    ( 0.0000,  0.0000,  0.0000)
  50 Cu    10.746290    6.041600   14.276034    ( 0.0000,  0.0000,  0.0000)
  51 Cu     8.124077    4.534815   16.405698    ( 0.0000,  0.0000,  0.0000)
  52 Cu     9.433919    5.287869   18.546002    ( 0.0000,  0.0000,  0.0000)
  53 Cu    10.738068    6.039929   20.766294    ( 0.0000,  0.0000,  0.0000)
  54 Cl     6.142183    2.661959   22.636316    ( 0.0000,  0.0000,  0.0000)
  55 Cl     4.857060    3.372629    8.045312    ( 0.0000,  0.0000,  0.0000)
  56 Cl    10.096249    4.906012   22.674769    ( 0.0000,  0.0000,  0.0000)
  57 Cl     0.918543    1.128373    8.009011    ( 0.0000,  0.0000,  0.0000)
  58 Cl     8.854358    5.721226    7.996419    ( 0.0000,  0.0000,  0.0000)
  59 Cl     2.083178    0.316350   22.704264    ( 0.0000,  0.0000,  0.0000)

Unit cell:
           periodic     x           y           z      points  spacing
  1. axis:    yes    7.851007    0.000000    0.000000    45     0.1511
  2. axis:    yes    3.925503    6.799171    0.000000    45     0.1511
  3. axis:    yes    0.000000    0.000000   30.683867   175     0.1753

  Lengths:   7.851007   7.851006  30.683867
  Angles:   90.000000  90.000000  60.000001

Effective grid spacing dv^(1/3) = 0.1666

     iter     time        total  log10-change:
                         energy  eigst   dens
iter:   1 11:14:20 -4323.902663  -1.38
iter:   2 11:15:03 -4312.263393  -1.58  -1.67
iter:   3 11:15:47 -4311.396854  -3.18  -2.34
iter:   4 11:16:32 -4311.423226  -3.10  -2.46
iter:   5 11:17:17 -4311.250220c -3.25  -2.46
iter:   6 11:18:02 -4311.105963c -3.56  -2.63
iter:   7 11:18:55 -4311.091237c -4.14  -2.92
iter:   8 11:19:52 -4311.111257c -3.60  -3.03
iter:   9 11:20:36 -4311.090301c -4.32  -3.20
iter:  10 11:21:20 -4311.085943c -4.43  -3.37
iter:  11 11:22:04 -4311.085793c -5.09  -3.45
iter:  12 11:22:41 -4311.084969c -5.49  -3.50
iter:  13 11:23:20 -4311.084149c -5.68  -3.63
iter:  14 11:23:58 -4311.084015c -6.38  -3.76
iter:  15 11:24:36 -4311.084205c -5.95  -3.89
iter:  16 11:25:20 -4311.084062c -6.34  -4.02c
iter:  17 11:26:04 -4311.083966c -6.30  -4.06c
iter:  18 11:26:48 -4311.083864c -6.03  -4.08c
iter:  19 11:27:32 -4311.083890c -6.56  -4.29c
iter:  20 11:28:16 -4311.083856c -7.19  -4.45c
iter:  21 11:29:00 -4311.083841c -7.02  -4.48c
iter:  22 11:29:46 -4311.083845c -7.54c -4.50c

Converged after 22 iterations.

Dipole moment: (-19.443775, -11.382757, -0.005548) |e|*Ang

Energy contributions relative to reference atoms: (reference = -2506488.095795)

Kinetic:       +430.469202
Potential:     -471.889697
External:        +0.000000
XC:            -4268.672246
Entropy (-ST):   -0.504715
Local:           -0.738746
--------------------------
Free energy:   -4311.336202
Extrapolated:  -4311.083845

Showing only first 2 kpts
 Kpt  Band  Eigenvalues  Occupancy
  0   316      0.18415    1.19754
  0   317      0.24867    0.87817
  0   318      0.30890    0.60002
  0   319      0.46626    0.16320

  1   316     -0.33967    1.99291
  1   317     -0.19728    1.97087
  1   318     -0.02871    1.85228
  1   319      0.25151    0.86421


Fermi level: 0.22418

No gap

Forces in eV/Ang:
  0 Cu   -0.00613    0.01279    0.13168
  1 Cu    0.07255    0.11868   -0.01414
  2 Cu   -0.13273   -0.24694    0.31680
  3 Cu    0.14115    0.25329    0.29868
  4 Cu   -0.02546    0.00232   -0.03054
  5 Cu   -0.01674    0.00842   -0.08094
  6 Cu   -0.00134    0.00192    0.02972
  7 Cu    0.02431   -0.04007    0.01928
  8 Cu    0.01067   -0.01687   -0.03822
  9 Cu    0.01616   -0.00477   -0.03879
 10 Cu    0.00343    0.00391   -0.05923
 11 Cu   -0.02267    0.01133   -0.06666
 12 Cu   -0.00018   -0.00277    0.05202
 13 Cu   -0.01706    0.00264    0.03974
 14 Cu   -0.00346   -0.00289    0.06164
 15 Cu   -0.00088    0.00219    0.05815
 16 Cu   -0.01332   -0.02289    0.11290
 17 Cu    0.01083   -0.00009    0.07414
 18 Cu    0.00161   -0.00174   -0.02710
 19 Cu   -0.05030    0.00974   -0.01064
 20 Cu    0.04381    0.10080    0.00770
 21 Cu   -0.07047   -0.11414    0.00854
 22 Cu    0.07954    0.15231   -0.13462
 23 Cu    0.07641   -0.07048   -0.07853
 24 Cu   -0.04542   -0.09863    0.00140
 25 Cu    0.05928   -0.02253    0.09332
 26 Cu   -0.01157    0.01825   -0.03090
 27 Cu    0.04887   -0.00587    0.01311
 28 Cu    0.00007    0.00164   -0.04921
 29 Cu   -0.00806   -0.00839   -0.05787
 30 Cu   -0.01197    0.01573    0.04037
 31 Cu    0.01907   -0.00713    0.09995
 32 Cu    0.00482    0.01559    0.11249
 33 Cu   -0.02918    0.03810   -0.01328
 34 Cu    0.01228   -0.01257   -0.13437
 35 Cu   -0.18866   -0.34701   -0.50310
 36 Cu    0.18776    0.28840    0.43138
 37 Cu   -0.07625    0.06905    0.07581
 38 Cu    0.01380    0.01751   -0.10818
 39 Cu   -0.00143   -0.01544   -0.10035
 40 Cu   -0.02020    0.00539   -0.10048
 41 Cu   -0.00091   -0.00429   -0.05830
 42 Cu    0.00700    0.00705    0.06146
 43 Cu    0.02150   -0.01382    0.06906
 44 Cu    0.02351   -0.00617    0.03937
 45 Cu    0.01331   -0.01639    0.04255
 46 Cu   -0.06801    0.03035   -0.09592
 47 Cu   -0.14378   -0.26276   -0.31233
 48 Cu   -0.07815   -0.17390    0.18189
 49 Cu   -0.01195    0.00069   -0.06918
 50 Cu    0.00180    0.00167   -0.05844
 51 Cu   -0.00451   -0.00549    0.06219
 52 Cu    0.01617   -0.00887    0.07882
 53 Cu    0.13132    0.24559   -0.31993
 54 Cl   -0.01562    0.00367   -0.00536
 55 Cl    0.01337    0.00536    0.00617
 56 Cl   -0.00486    0.00560    0.25723
 57 Cl    0.00868    0.00029   -0.24970
 58 Cl   -0.07302   -0.19830   -0.23714
 59 Cl    0.08739    0.28221    0.21317

System changes: positions 

Initializing position-dependent things.

Density initialized from wave functions
                                              
                                              
                                              
                                              
                                   Cl         
                                              
                       Clu    Cu     Cu       
            Cl            Cu    Cu            
                   Cu                         
               Cu   CCu    CCu   Cu           
                             Cu               
               Cu     Cu                      
           Cu   CCu    CCu   Cu               
                                              
            Cu    Cu    CCu   Cu     Cu       
       Cu     Cu   CCu    Cu    Cu            
                                              
               Cu   CCu    CCu   Cu           
                      Cu                      
               Cu            Cu               
           Cu   CCu    CCu   Cu               
                         Cu                   
            Cu    Cu            Cl            
       Cu     Cu    Cul                       
                                              
         Cl                                   
                                              
                                              
                                              
                                              

Positions:
   0 Cu     2.883932   -0.008524   10.016850    ( 0.0000,  0.0000,  0.0000)
   1 Cu     4.179928    2.214071    9.990816    ( 0.0000,  0.0000,  0.0000)
   2 Cu     0.264580   -0.031082    9.946081    ( 0.0000,  0.0000,  0.0000)
   3 Cu     1.591683    2.280437    9.945864    ( 0.0000,  0.0000,  0.0000)
   4 Cu     2.878413    3.000650   12.086485    ( 0.0000,  0.0000,  0.0000)
   5 Cu     1.584648    0.752243   12.127984    ( 0.0000,  0.0000,  0.0000)
   6 Cu     5.510427    3.016383   12.121882    ( 0.0000,  0.0000,  0.0000)
   7 Cu     4.214287    0.759360   12.085712    ( 0.0000,  0.0000,  0.0000)
   8 Cu     5.513249    1.511832   14.268637    ( 0.0000,  0.0000,  0.0000)
   9 Cu     6.818865    3.774995   14.266434    ( 0.0000,  0.0000,  0.0000)
  10 Cu     2.896711    1.507885   14.274846    ( 0.0000,  0.0000,  0.0000)
  11 Cu     4.202034    3.779191   14.247268    ( 0.0000,  0.0000,  0.0000)
  12 Cu     2.896236   -0.005457   16.438870    ( 0.0000,  0.0000,  0.0000)
  13 Cu     4.201692    2.267011   16.418846    ( 0.0000,  0.0000,  0.0000)
  14 Cu     0.274219    0.000289   16.413782    ( 0.0000,  0.0000,  0.0000)
  15 Cu     1.580887    2.265496   16.416434    ( 0.0000,  0.0000,  0.0000)
  16 Cu     2.880254    3.006924   18.601018    ( 0.0000,  0.0000,  0.0000)
  17 Cu     1.580248    0.754175   18.563945    ( 0.0000,  0.0000,  0.0000)
  18 Cu     5.508755    3.023240   18.562620    ( 0.0000,  0.0000,  0.0000)
  19 Cu     4.203039    0.770427   18.599245    ( 0.0000,  0.0000,  0.0000)
  20 Cu     5.477619    1.475276   20.700572    ( 0.0000,  0.0000,  0.0000)
  21 Cu     6.837340    3.821609   20.695923    ( 0.0000,  0.0000,  0.0000)
  22 Cu     2.886670    1.521024   20.754873    ( 0.0000,  0.0000,  0.0000)
  23 Cu     4.209763    3.768881   20.665428    ( 0.0000,  0.0000,  0.0000)
  24 Cu     5.537124    4.557696    9.979459    ( 0.0000,  0.0000,  0.0000)
  25 Cu     2.893636    4.520205   10.016397    ( 0.0000,  0.0000,  0.0000)
  26 Cu     4.209089    5.305148   12.083071    ( 0.0000,  0.0000,  0.0000)
  27 Cu     6.814990    5.268151   12.083434    ( 0.0000,  0.0000,  0.0000)
  28 Cu     8.123907    6.046698   14.245264    ( 0.0000,  0.0000,  0.0000)
  29 Cu     5.516116    6.042610   14.272778    ( 0.0000,  0.0000,  0.0000)
  30 Cu     5.507173    4.530133   16.415920    ( 0.0000,  0.0000,  0.0000)
  31 Cu     2.895368    4.527721   16.426649    ( 0.0000,  0.0000,  0.0000)
  32 Cu     4.210263    5.306872   18.604257    ( 0.0000,  0.0000,  0.0000)
  33 Cu     6.802595    5.279482   18.601233    ( 0.0000,  0.0000,  0.0000)
  34 Cu     8.132074    6.044262   20.664196    ( 0.0000,  0.0000,  0.0000)
  35 Cu     5.488076    6.018348   20.736801    ( 0.0000,  0.0000,  0.0000)
  36 Cu     5.532628    0.016226    9.953125    ( 0.0000,  0.0000,  0.0000)
  37 Cu     6.807728    2.266398   10.021369    ( 0.0000,  0.0000,  0.0000)
  38 Cu     8.138824    3.033706   12.083265    ( 0.0000,  0.0000,  0.0000)
  39 Cu     6.809144    0.732159   12.081510    ( 0.0000,  0.0000,  0.0000)
  40 Cu     8.125466    1.514404   14.257058    ( 0.0000,  0.0000,  0.0000)
  41 Cu     9.439175    3.776242   14.270062    ( 0.0000,  0.0000,  0.0000)
  42 Cu     5.504088   -0.000912   16.411133    ( 0.0000,  0.0000,  0.0000)
  43 Cu     6.818758    2.262796   16.436936    ( 0.0000,  0.0000,  0.0000)
  44 Cu     8.140426    3.037634   18.601615    ( 0.0000,  0.0000,  0.0000)
  45 Cu     6.811032    0.734543   18.600556    ( 0.0000,  0.0000,  0.0000)
  46 Cu     8.124894    1.514724   20.674742    ( 0.0000,  0.0000,  0.0000)
  47 Cu     9.425319    3.754539   20.740273    ( 0.0000,  0.0000,  0.0000)
  48 Cu     8.128098    4.508431    9.933079    ( 0.0000,  0.0000,  0.0000)
  49 Cu     9.438391    5.284344   12.121695    ( 0.0000,  0.0000,  0.0000)
  50 Cu    10.746467    6.041710   14.270495    ( 0.0000,  0.0000,  0.0000)
  51 Cu     8.123471    4.534189   16.412012    ( 0.0000,  0.0000,  0.0000)
  52 Cu     9.435900    5.286793   18.556094    ( 0.0000,  0.0000,  0.0000)
  53 Cu    10.752012    6.066309   20.737694    ( 0.0000,  0.0000,  0.0000)
  54 Cl     6.140362    2.662307   22.648219    ( 0.0000,  0.0000,  0.0000)
  55 Cl     4.858617    3.373400    8.033627    ( 0.0000,  0.0000,  0.0000)
  56 Cl    10.095538    4.906505   22.685607    ( 0.0000,  0.0000,  0.0000)
  57 Cl     0.919545    1.128396    7.998603    ( 0.0000,  0.0000,  0.0000)
  58 Cl     8.847062    5.700738    7.986009    ( 0.0000,  0.0000,  0.0000)
  59 Cl     2.091818    0.344717   22.709935    ( 0.0000,  0.0000,  0.0000)

Unit cell:
           periodic     x           y           z      points  spacing
  1. axis:    yes    7.851007    0.000000    0.000000    45     0.1511
  2. axis:    yes    3.925503    6.799171    0.000000    45     0.1511
  3. axis:    yes    0.000000    0.000000   30.683867   175     0.1753

  Lengths:   7.851007   7.851006  30.683867
  Angles:   90.000000  90.000000  60.000001

Effective grid spacing dv^(1/3) = 0.1666

     iter     time        total  log10-change:
                         energy  eigst   dens
iter:   1 11:31:18 -4311.924600  -2.00
iter:   2 11:32:14 -4311.487555  -3.23  -2.29
iter:   3 11:33:07 -4311.256227  -2.61  -2.42
iter:   4 11:33:54 -4311.258767c -3.58  -2.78
iter:   5 11:34:40 -4311.212672c -4.41  -2.81
iter:   6 11:35:29 -4311.209979c -3.28  -2.92
iter:   7 11:36:13 -4311.189192c -4.43  -3.33
iter:   8 11:37:34 -4311.181762c -4.11  -3.33
iter:   9 11:38:17 -4311.181976c -5.15  -3.47
iter:  10 11:39:01 -4311.181187c -5.09  -3.63
iter:  11 11:39:44 -4311.181482c -5.71  -3.70
iter:  12 11:40:27 -4311.180625c -5.89  -3.66
iter:  13 11:41:11 -4311.180677c -5.95  -3.90
iter:  14 11:41:55 -4311.180525c -6.59  -3.97
iter:  15 11:42:38 -4311.180470c -6.08  -4.06c
iter:  16 11:43:22 -4311.180397c -6.39  -4.20c
iter:  17 11:44:06 -4311.180388c -7.09  -4.55c
iter:  18 11:44:50 -4311.180387c -7.95c -4.62c

Converged after 18 iterations.

Dipole moment: (-19.808407, -11.501833, -0.002583) |e|*Ang

Energy contributions relative to reference atoms: (reference = -2506488.095795)

Kinetic:       +428.074888
Potential:     -470.038213
External:        +0.000000
XC:            -4268.222822
Entropy (-ST):   -0.506679
Local:           -0.740900
--------------------------
Free energy:   -4311.433727
Extrapolated:  -4311.180387

Showing only first 2 kpts
 Kpt  Band  Eigenvalues  Occupancy
  0   316      0.11567    1.17534
  0   317      0.16975    0.90702
  0   318      0.22994    0.62506
  0   319      0.39093    0.16661

  1   316     -0.41385    1.99299
  1   317     -0.27505    1.97219
  1   318     -0.10066    1.85074
  1   319      0.17732    0.86968


Fermi level: 0.15110

No gap

Forces in eV/Ang:
  0 Cu    0.00236    0.01903    0.01751
  1 Cu    0.07849    0.13347   -0.10603
  2 Cu    0.04642    0.02763    0.03684
  3 Cu    0.00014   -0.03468    0.03305
  4 Cu    0.02003    0.00464    0.06216
  5 Cu   -0.00502    0.00328   -0.01840
  6 Cu   -0.00795    0.00711    0.05016
  7 Cu   -0.01685   -0.00326    0.08116
  8 Cu    0.00803   -0.01152   -0.00672
  9 Cu    0.01176   -0.00527   -0.00597
 10 Cu   -0.00578   -0.00147   -0.02905
 11 Cu   -0.01580    0.00776   -0.02045
 12 Cu   -0.00536    0.00159    0.01007
 13 Cu   -0.01303    0.00340    0.00412
 14 Cu    0.00120   -0.00167    0.02752
 15 Cu    0.00176   -0.00044    0.02199
 16 Cu    0.01354   -0.00622   -0.00786
 17 Cu    0.00743    0.01685    0.01257
 18 Cu    0.00667   -0.00787   -0.05196
 19 Cu   -0.01985    0.00289   -0.04950
 20 Cu    0.05725    0.12284    0.09946
 21 Cu   -0.07675   -0.13896    0.10579
 22 Cu   -0.01826   -0.04611   -0.00063
 23 Cu   -0.01033   -0.04655    0.02598
 24 Cu   -0.05653   -0.11707   -0.08986
 25 Cu   -0.00425    0.02143   -0.01206
 26 Cu    0.00861   -0.02532    0.06471
 27 Cu    0.01548    0.00041    0.05493
 28 Cu    0.00526   -0.00325   -0.00784
 29 Cu   -0.00556    0.00190   -0.02911
 30 Cu   -0.00898    0.01080    0.00635
 31 Cu    0.00714   -0.00360    0.05997
 32 Cu   -0.02836   -0.03378   -0.05755
 33 Cu    0.01948    0.00111   -0.08753
 34 Cu    0.00862   -0.02428   -0.02258
 35 Cu    0.01731    0.03588   -0.05073
 36 Cu   -0.02674   -0.04739    0.02945
 37 Cu    0.00603    0.03680   -0.02621
 38 Cu   -0.01344   -0.00292    0.01720
 39 Cu    0.02604    0.03215    0.05855
 40 Cu   -0.00723    0.00143   -0.06018
 41 Cu   -0.00314    0.00009   -0.02347
 42 Cu    0.00546   -0.00181    0.02934
 43 Cu    0.01531   -0.00963    0.02194
 44 Cu   -0.02072   -0.00737   -0.06219
 45 Cu   -0.00738    0.02450   -0.05726
 46 Cu    0.00116   -0.02502    0.01383
 47 Cu    0.00554    0.03482   -0.03523
 48 Cu    0.02276    0.04746    0.01376
 49 Cu   -0.00698   -0.01343   -0.01065
 50 Cu   -0.00331   -0.00039   -0.02631
 51 Cu    0.00390   -0.00147    0.02900
 52 Cu    0.00394   -0.00455    0.01394
 53 Cu   -0.04607   -0.03031   -0.03702
 54 Cl   -0.01704    0.00183   -0.16234
 55 Cl    0.01495    0.00605    0.16724
 56 Cl   -0.00893    0.00336   -0.12499
 57 Cl    0.00951   -0.00235    0.12883
 58 Cl   -0.02459   -0.08753    0.17369
 59 Cl    0.02891    0.13359   -0.19805

System changes: positions 

Initializing position-dependent things.

Density initialized from wave functions
                                              
                                              
                                              
                                              
                                   Cl         
                                              
                       Clu    Cu     Cu       
            Cl            Cu    Cu            
                   Cu                         
               Cu   CCu    CCu   Cu           
               Cu            Cu               
                      Cu                      
           Cu   CCu    CCu   Cu               
                                              
            Cu    Cu    CCu   Cu     Cu       
       Cu     Cu   CCu    Cu    Cu            
                                              
               Cu   CCu    CCu   Cu           
                      Cu                      
               Cu            Cu               
           Cu   CCu    CCu   Cu               
                                              
            Cu    Cu     Cu     Cl            
       Cu     Cu    Cul                       
                                              
         Cl                                   
                                              
                                              
                                              
                                              

Positions:
   0 Cu     2.884040   -0.006408   10.021400    ( 0.0000,  0.0000,  0.0000)
   1 Cu     4.187476    2.226742    9.984230    ( 0.0000,  0.0000,  0.0000)
   2 Cu     0.265927   -0.034753    9.953469    ( 0.0000,  0.0000,  0.0000)
   3 Cu     1.595454    2.283469    9.952359    ( 0.0000,  0.0000,  0.0000)
   4 Cu     2.878941    3.000632   12.089731    ( 0.0000,  0.0000,  0.0000)
   5 Cu     1.583655    0.752813   12.123224    ( 0.0000,  0.0000,  0.0000)
   6 Cu     5.509914    3.016918   12.127047    ( 0.0000,  0.0000,  0.0000)
   7 Cu     4.213644    0.758041   12.091751    ( 0.0000,  0.0000,  0.0000)
   8 Cu     5.514325    1.510451   14.267102    ( 0.0000,  0.0000,  0.0000)
   9 Cu     6.820304    3.774267   14.264902    ( 0.0000,  0.0000,  0.0000)
  10 Cu     2.896299    1.507865   14.270690    ( 0.0000,  0.0000,  0.0000)
  11 Cu     4.200002    3.780150   14.243107    ( 0.0000,  0.0000,  0.0000)
  12 Cu     2.895720   -0.005371   16.440834    ( 0.0000,  0.0000,  0.0000)
  13 Cu     4.200108    2.267494   16.420252    ( 0.0000,  0.0000,  0.0000)
  14 Cu     0.274307    0.000119   16.417575    ( 0.0000,  0.0000,  0.0000)
  15 Cu     1.581033    2.265470   16.419628    ( 0.0000,  0.0000,  0.0000)
  16 Cu     2.880633    3.005517   18.605276    ( 0.0000,  0.0000,  0.0000)
  17 Cu     1.581308    0.755518   18.568157    ( 0.0000,  0.0000,  0.0000)
  18 Cu     5.509166    3.022644   18.557416    ( 0.0000,  0.0000,  0.0000)
  19 Cu     4.199857    0.771087   18.596227    ( 0.0000,  0.0000,  0.0000)
  20 Cu     5.482291    1.486360   20.706526    ( 0.0000,  0.0000,  0.0000)
  21 Cu     6.830105    3.808611   20.702382    ( 0.0000,  0.0000,  0.0000)
  22 Cu     2.887153    1.520337   20.754844    ( 0.0000,  0.0000,  0.0000)
  23 Cu     4.210751    3.762606   20.665944    ( 0.0000,  0.0000,  0.0000)
  24 Cu     5.532430    4.547110    9.974606    ( 0.0000,  0.0000,  0.0000)
  25 Cu     2.894828    4.521572   10.017665    ( 0.0000,  0.0000,  0.0000)
  26 Cu     4.209611    5.304107   12.086640    ( 0.0000,  0.0000,  0.0000)
  27 Cu     6.817776    5.267919   12.087077    ( 0.0000,  0.0000,  0.0000)
  28 Cu     8.124406    6.046428   14.243578    ( 0.0000,  0.0000,  0.0000)
  29 Cu     5.515415    6.042468   14.268696    ( 0.0000,  0.0000,  0.0000)
  30 Cu     5.505965    4.531394   16.417484    ( 0.0000,  0.0000,  0.0000)
  31 Cu     2.896655    4.527078   16.434942    ( 0.0000,  0.0000,  0.0000)
  32 Cu     4.207846    5.304787   18.603994    ( 0.0000,  0.0000,  0.0000)
  33 Cu     6.803351    5.280567   18.594756    ( 0.0000,  0.0000,  0.0000)
  34 Cu     8.133070    6.041756   20.659081    ( 0.0000,  0.0000,  0.0000)
  35 Cu     5.485484    6.013352   20.724662    ( 0.0000,  0.0000,  0.0000)
  36 Cu     5.534595    0.019256    9.962435    ( 0.0000,  0.0000,  0.0000)
  37 Cu     6.806291    2.271726   10.020812    ( 0.0000,  0.0000,  0.0000)
  38 Cu     8.138440    3.034151   12.079951    ( 0.0000,  0.0000,  0.0000)
  39 Cu     6.811377    0.734069   12.082160    ( 0.0000,  0.0000,  0.0000)
  40 Cu     8.124127    1.514770   14.248701    ( 0.0000,  0.0000,  0.0000)
  41 Cu     9.438840    3.776152   14.266711    ( 0.0000,  0.0000,  0.0000)
  42 Cu     5.504737   -0.000810   16.415393    ( 0.0000,  0.0000,  0.0000)
  43 Cu     6.820697    2.261570   16.441301    ( 0.0000,  0.0000,  0.0000)
  44 Cu     8.139775    3.037260   18.598632    ( 0.0000,  0.0000,  0.0000)
  45 Cu     6.810657    0.735572   18.598066    ( 0.0000,  0.0000,  0.0000)
  46 Cu     8.123327    1.513172   20.673853    ( 0.0000,  0.0000,  0.0000)
  47 Cu     9.422046    3.751318   20.733342    ( 0.0000,  0.0000,  0.0000)
  48 Cu     8.127989    4.508546    9.935561    ( 0.0000,  0.0000,  0.0000)
  49 Cu     9.437337    5.283320   12.117825    ( 0.0000,  0.0000,  0.0000)
  50 Cu    10.746127    6.041652   14.266941    ( 0.0000,  0.0000,  0.0000)
  51 Cu     8.123663    4.533875   16.416238    ( 0.0000,  0.0000,  0.0000)
  52 Cu     9.436809    5.286056   18.560366    ( 0.0000,  0.0000,  0.0000)
  53 Cu    10.750638    6.069677   20.730292    ( 0.0000,  0.0000,  0.0000)
  54 Cl     6.138195    2.662523   22.637351    ( 0.0000,  0.0000,  0.0000)
  55 Cl     4.860502    3.374283    8.045039    ( 0.0000,  0.0000,  0.0000)
  56 Cl    10.094405    4.906896   22.667359    ( 0.0000,  0.0000,  0.0000)
  57 Cl     0.920747    1.128181    8.017239    ( 0.0000,  0.0000,  0.0000)
  58 Cl     8.843049    5.687362    8.008599    ( 0.0000,  0.0000,  0.0000)
  59 Cl     2.096554    0.364173   22.683192    ( 0.0000,  0.0000,  0.0000)

Unit cell:
           periodic     x           y           z      points  spacing
  1. axis:    yes    7.851007    0.000000    0.000000    45     0.1511
  2. axis:    yes    3.925503    6.799171    0.000000    45     0.1511
  3. axis:    yes    0.000000    0.000000   30.683867   175     0.1753

  Lengths:   7.851007   7.851006  30.683867
  Angles:   90.000000  90.000000  60.000001

Effective grid spacing dv^(1/3) = 0.1666

     iter     time        total  log10-change:
                         energy  eigst   dens
iter:   1 11:45:58 -4311.394488  -2.89
iter:   2 11:46:41 -4311.236507  -3.50  -2.65
iter:   3 11:47:25 -4311.247155c -4.21  -2.99
iter:   4 11:48:09 -4311.213900c -4.63  -2.94
iter:   5 11:48:53 -4311.209700c -4.03  -3.18
iter:   6 11:49:36 -4311.206776c -4.85  -3.53
iter:   7 11:50:20 -4311.208183c -4.86  -3.65
iter:   8 11:51:04 -4311.206903c -5.69  -3.88
iter:   9 11:51:53 -4311.206513c -5.71  -3.99
iter:  10 11:52:37 -4311.206527c -6.37  -4.09c
iter:  11 11:53:20 -4311.206514c -6.31  -4.11c
iter:  12 11:54:04 -4311.206456c -6.48  -4.16c
iter:  13 11:54:47 -4311.206408c -6.43  -4.41c
iter:  14 11:55:30 -4311.206418c -7.08  -4.60c
iter:  15 11:56:14 -4311.206417c -7.78c -4.69c

Converged after 15 iterations.

Dipole moment: (-19.916914, -11.299898, -0.000556) |e|*Ang

Energy contributions relative to reference atoms: (reference = -2506488.095795)

Kinetic:       +430.488978
Potential:     -471.929009
External:        +0.000000
XC:            -4268.808656
Entropy (-ST):   -0.505160
Local:           -0.705151
--------------------------
Free energy:   -4311.458997
Extrapolated:  -4311.206417

Showing only first 2 kpts
 Kpt  Band  Eigenvalues  Occupancy
  0   316      0.15035    1.16957
  0   317      0.19995    0.92341
  0   318      0.26030    0.63857
  0   319      0.43043    0.15766

  1   316     -0.37850    1.99286
  1   317     -0.23942    1.97160
  1   318     -0.06342    1.84549
  1   319      0.21162    0.86573


Fermi level: 0.18460

No gap

Forces in eV/Ang:
  0 Cu    0.01133    0.01361    0.02369
  1 Cu    0.01570    0.02150    0.00069
  2 Cu    0.03692    0.02627    0.04756
  3 Cu    0.00641   -0.02967    0.04391
  4 Cu    0.02628    0.00128    0.03711
  5 Cu    0.00502   -0.00212    0.00920
  6 Cu   -0.00261    0.00186    0.02697
  7 Cu   -0.01210    0.02596    0.03562
  8 Cu    0.00241   -0.00288    0.02010
  9 Cu    0.00309   -0.00365    0.01821
 10 Cu   -0.01107   -0.00351    0.00192
 11 Cu   -0.00686    0.00226    0.01860
 12 Cu   -0.00818    0.00582   -0.01638
 13 Cu   -0.00440    0.00240   -0.01813
 14 Cu    0.00511    0.00233   -0.00281
 15 Cu    0.00198   -0.00401   -0.00603
 16 Cu    0.01306   -0.00737   -0.02714
 17 Cu   -0.00540    0.01058   -0.01353
 18 Cu    0.00157   -0.00324   -0.02809
 19 Cu    0.01211    0.00803   -0.01437
[...]
  0   317      0.24865    1.03157
  0   318      0.28184    0.86640
  0   319      0.47819    0.19378

  1   316     -0.26627    1.98916
  1   317     -0.13426    1.96002
  1   318     -0.11884    1.95350
  1   319      0.36115    0.51388


Fermi level: 0.25496

No gap

Forces in eV/Ang:
  0 Cu   -0.02001    0.00769   -0.02316
  1 Cu    0.00318   -0.00004   -0.00296
  2 Cu   -0.00175   -0.00059    0.00599
  3 Cu   -0.00114   -0.00827   -0.00733
  4 Cu   -0.00427   -0.00657   -0.00062
  5 Cu    0.00460   -0.00240   -0.00621
  6 Cu   -0.00144    0.00219   -0.00683
  7 Cu    0.00820   -0.00096   -0.00013
  8 Cu    0.00060    0.00273    0.00067
  9 Cu    0.00086   -0.00183    0.00170
 10 Cu   -0.00177   -0.00202    0.01333
 11 Cu   -0.00031    0.00195    0.00289
 12 Cu    0.01059   -0.00221    0.00165
 13 Cu   -0.00106    0.00368   -0.01016
 14 Cu    0.00264    0.00202    0.01433
 15 Cu    0.00130    0.00271    0.00513
 16 Cu    0.00098   -0.00224   -0.00098
 17 Cu   -0.01419    0.02027    0.00607
 18 Cu   -0.00855   -0.00266   -0.00215
 19 Cu   -0.00568    0.00501   -0.00704
 20 Cu   -0.00661    0.00083    0.00385
 21 Cu    0.00426   -0.00088    0.00186
 22 Cu   -0.01876   -0.01218   -0.00092
 23 Cu   -0.01873    0.00498   -0.00553
 24 Cu    0.00539   -0.00560   -0.00001
 25 Cu   -0.00066   -0.00292    0.01022
 26 Cu   -0.00055    0.00608   -0.00733
 27 Cu    0.00152   -0.00072    0.00012
 28 Cu    0.00915   -0.00813    0.01544
 29 Cu   -0.00342    0.00690    0.01328
 30 Cu    0.00198    0.00107   -0.00240
 31 Cu   -0.00424   -0.00150    0.00883
 32 Cu    0.00423    0.00051    0.00071
 33 Cu   -0.01448    0.00266   -0.00104
 34 Cu    0.01519    0.00230    0.02948
 35 Cu   -0.00818    0.00127   -0.00704
 36 Cu    0.00507    0.00239   -0.00487
 37 Cu    0.00440   -0.00385   -0.01325
 38 Cu    0.00326    0.00324   -0.00926
 39 Cu   -0.00731   -0.00257   -0.01010
 40 Cu    0.00378   -0.00314   -0.00167
 41 Cu    0.00130   -0.00440    0.00085
 42 Cu    0.01090   -0.00475   -0.00106
 43 Cu   -0.00577    0.00465   -0.00613
 44 Cu    0.00571    0.00392    0.00273
 45 Cu   -0.00101   -0.00714    0.00861
 46 Cu   -0.01483    0.01324   -0.00181
 47 Cu   -0.00001    0.00461   -0.00545
 48 Cu    0.01584    0.01012   -0.01282
 49 Cu    0.00438   -0.00235   -0.01231
 50 Cu   -0.00254   -0.00437   -0.00964
 51 Cu    0.00618   -0.00813    0.00218
 52 Cu   -0.00335   -0.00130    0.00007
 53 Cu    0.00021    0.00658   -0.02172
 54 Cl   -0.01323    0.00539    0.01753
 55 Cl    0.02396   -0.01413    0.01558
 56 Cl   -0.00860    0.00513   -0.02863
 57 Cl    0.01920   -0.01053    0.04841
 58 Cl    0.01479   -0.02384    0.01314
 59 Cl    0.01275    0.00908   -0.00555

System changes: positions 

Initializing position-dependent things.

Density initialized from wave functions
                                              
                                              
                                              
                                              
                                 Cl           
                                              
                      ClCu    Cu     Cu       
           Cl      Cu     Cu    Cu            
                                              
               Cu   CCu    CCu   Cu           
                Cu           Cu               
                      Cu                      
           Cu   CCu    CCu   Cu               
                                              
            Cu    Cu    CCu   Cu     Cu       
       Cu     Cu   CCu    Cu    Cu            
                                              
               Cu   CCu    CCu   Cu           
                      Cu                      
               Cu           Cu                
           Cu   CCu    CCu   Cu               
                                              
            Cu    Cu     Cu      Cl           
       Cu     Cu    CuCl                      
                                              
           Cl                                 
                                              
                                              
                                              
                                              

Positions:
   0 Cu     2.888178    0.016098   10.018774    ( 0.0000,  0.0000,  0.0000)
   1 Cu     4.179645    2.284602   10.016049    ( 0.0000,  0.0000,  0.0000)
   2 Cu     0.256060    0.018173   10.012573    ( 0.0000,  0.0000,  0.0000)
   3 Cu     1.570952    2.296610   10.017926    ( 0.0000,  0.0000,  0.0000)
   4 Cu     2.884055    3.039355   12.109254    ( 0.0000,  0.0000,  0.0000)
   5 Cu     1.573436    0.770046   12.159363    ( 0.0000,  0.0000,  0.0000)
   6 Cu     5.501878    3.034807   12.163224    ( 0.0000,  0.0000,  0.0000)
   7 Cu     4.190416    0.773017   12.111136    ( 0.0000,  0.0000,  0.0000)
   8 Cu     5.506602    1.512915   14.272610    ( 0.0000,  0.0000,  0.0000)
   9 Cu     6.814006    3.782934   14.276113    ( 0.0000,  0.0000,  0.0000)
  10 Cu     2.887990    1.518210   14.268177    ( 0.0000,  0.0000,  0.0000)
  11 Cu     4.195733    3.783642   14.270980    ( 0.0000,  0.0000,  0.0000)
  12 Cu     2.889102   -0.010903   16.410347    ( 0.0000,  0.0000,  0.0000)
  13 Cu     4.197848    2.255969   16.415197    ( 0.0000,  0.0000,  0.0000)
  14 Cu     0.273228   -0.010603   16.412041    ( 0.0000,  0.0000,  0.0000)
  15 Cu     1.581818    2.260066   16.415076    ( 0.0000,  0.0000,  0.0000)
  16 Cu     2.897812    3.000209   18.577067    ( 0.0000,  0.0000,  0.0000)
  17 Cu     1.594458    0.730270   18.524982    ( 0.0000,  0.0000,  0.0000)
  18 Cu     5.516811    3.001264   18.525920    ( 0.0000,  0.0000,  0.0000)
  19 Cu     4.207311    0.735629   18.573938    ( 0.0000,  0.0000,  0.0000)
  20 Cu     5.525487    1.473231   20.665980    ( 0.0000,  0.0000,  0.0000)
  21 Cu     6.838128    3.751152   20.667960    ( 0.0000,  0.0000,  0.0000)
  22 Cu     2.914188    1.490305   20.672962    ( 0.0000,  0.0000,  0.0000)
  23 Cu     4.208591    3.753066   20.669588    ( 0.0000,  0.0000,  0.0000)
  24 Cu     5.493146    4.562903   10.017237    ( 0.0000,  0.0000,  0.0000)
  25 Cu     2.884459    4.551814   10.011870    ( 0.0000,  0.0000,  0.0000)
  26 Cu     4.190508    5.302802   12.109744    ( 0.0000,  0.0000,  0.0000)
  27 Cu     6.807585    5.301366   12.111237    ( 0.0000,  0.0000,  0.0000)
  28 Cu     8.118649    6.052619   14.267423    ( 0.0000,  0.0000,  0.0000)
  29 Cu     5.505560    6.044639   14.267489    ( 0.0000,  0.0000,  0.0000)
  30 Cu     5.504382    4.524752   16.417177    ( 0.0000,  0.0000,  0.0000)
  31 Cu     2.892390    4.521290   16.415073    ( 0.0000,  0.0000,  0.0000)
  32 Cu     4.204968    5.268581   18.578149    ( 0.0000,  0.0000,  0.0000)
  33 Cu     6.825529    5.264315   18.572331    ( 0.0000,  0.0000,  0.0000)
  34 Cu     8.127059    6.020443   20.661475    ( 0.0000,  0.0000,  0.0000)
  35 Cu     5.521321    6.005908   20.670767    ( 0.0000,  0.0000,  0.0000)
  36 Cu     5.497624    0.030089   10.022430    ( 0.0000,  0.0000,  0.0000)
  37 Cu     6.810956    2.282729   10.024056    ( 0.0000,  0.0000,  0.0000)
  38 Cu     8.118074    3.036701   12.116899    ( 0.0000,  0.0000,  0.0000)
  39 Cu     6.811447    0.767494   12.115037    ( 0.0000,  0.0000,  0.0000)
  40 Cu     8.120792    1.517841   14.273276    ( 0.0000,  0.0000,  0.0000)
  41 Cu     9.432019    3.781488   14.271358    ( 0.0000,  0.0000,  0.0000)
  42 Cu     5.503194   -0.007268   16.415261    ( 0.0000,  0.0000,  0.0000)
  43 Cu     6.818784    2.253353   16.417254    ( 0.0000,  0.0000,  0.0000)
  44 Cu     8.134506    2.999180   18.575118    ( 0.0000,  0.0000,  0.0000)
  45 Cu     6.826014    0.731323   18.574409    ( 0.0000,  0.0000,  0.0000)
  46 Cu     8.135842    1.482077   20.666941    ( 0.0000,  0.0000,  0.0000)
  47 Cu     9.446724    3.741367   20.674077    ( 0.0000,  0.0000,  0.0000)
  48 Cu     8.103984    4.545697   10.020687    ( 0.0000,  0.0000,  0.0000)
  49 Cu     9.424644    5.303396   12.160954    ( 0.0000,  0.0000,  0.0000)
  50 Cu    10.738831    6.047855   14.273759    ( 0.0000,  0.0000,  0.0000)
  51 Cu     8.123726    4.525258   16.413966    ( 0.0000,  0.0000,  0.0000)
  52 Cu     9.443351    5.267491   18.527571    ( 0.0000,  0.0000,  0.0000)
  53 Cu    10.760558    6.016401   20.680644    ( 0.0000,  0.0000,  0.0000)
  54 Cl     5.535455    2.985281   22.572526    ( 0.0000,  0.0000,  0.0000)
  55 Cl     5.492330    3.045028    8.114557    ( 0.0000,  0.0000,  0.0000)
  56 Cl     9.426830    5.268883   22.576495    ( 0.0000,  0.0000,  0.0000)
  57 Cl     1.566546    0.779527    8.111549    ( 0.0000,  0.0000,  0.0000)
  58 Cl     9.402943    5.321087    8.114735    ( 0.0000,  0.0000,  0.0000)
  59 Cl     1.596212    0.727695   22.574825    ( 0.0000,  0.0000,  0.0000)

Unit cell:
           periodic     x           y           z      points  spacing
  1. axis:    yes    7.851007    0.000000    0.000000    45     0.1511
  2. axis:    yes    3.925503    6.799171    0.000000    45     0.1511
  3. axis:    yes    0.000000    0.000000   30.683867   175     0.1753

  Lengths:   7.851007   7.851006  30.683867
  Angles:   90.000000  90.000000  60.000001

Effective grid spacing dv^(1/3) = 0.1666

     iter     time        total  log10-change:
                         energy  eigst   dens
iter:   1 20:17:31 -4311.598493  -4.32
iter:   2 20:18:18 -4311.597710  -5.14  -3.55
iter:   3 20:19:04 -4311.596437c -5.67  -3.63
iter:   4 20:19:49 -4311.596021c -6.69  -3.85
iter:   5 20:20:36 -4311.595961c -6.09  -4.00c
iter:   6 20:21:21 -4311.595924c -6.58  -4.23c
iter:   7 20:22:07 -4311.595921c -7.38  -4.45c
iter:   8 20:22:53 -4311.595918c -7.02  -4.52c
iter:   9 20:23:39 -4311.595916c -7.86c -4.75c

Converged after 9 iterations.

Dipole moment: (-15.756043, -10.107821, 0.000907) |e|*Ang

Energy contributions relative to reference atoms: (reference = -2506488.095795)

Kinetic:       +437.637402
Potential:     -477.183265
External:        +0.000000
XC:            -4271.105280
Entropy (-ST):   -0.523309
Local:           -0.683118
--------------------------
Free energy:   -4311.857571
Extrapolated:  -4311.595916

Showing only first 2 kpts
 Kpt  Band  Eigenvalues  Occupancy
  0   316      0.22902    1.13795
  0   317      0.25081    1.02989
  0   318      0.28343    0.86757
  0   319      0.48001    0.19380

  1   316     -0.26448    1.98917
  1   317     -0.13254    1.96006
  1   318     -0.11719    1.95359
  1   319      0.36321    0.51303


Fermi level: 0.25679

No gap

Forces in eV/Ang:
  0 Cu   -0.00318   -0.00037   -0.00630
  1 Cu    0.00755   -0.00299   -0.00384
  2 Cu    0.00173   -0.00671    0.00606
  3 Cu    0.00467   -0.00504   -0.00442
  4 Cu    0.00030   -0.01021    0.00181
  5 Cu    0.00867   -0.00293   -0.00233
  6 Cu   -0.00545    0.00409   -0.00610
  7 Cu    0.00664   -0.00411    0.00406
  8 Cu    0.00034   -0.00006   -0.00178
  9 Cu    0.00042   -0.00558   -0.00837
 10 Cu   -0.00142   -0.00578    0.01300
 11 Cu   -0.00425    0.00150   -0.00020
 12 Cu    0.01041   -0.00418    0.00644
 13 Cu    0.00204    0.00549   -0.00546
 14 Cu   -0.00265    0.00203    0.01018
 15 Cu   -0.00377   -0.00100    0.00409
 16 Cu    0.00345    0.00068    0.00183
 17 Cu   -0.01077    0.01607    0.00288
 18 Cu   -0.00624   -0.00156    0.00279
 19 Cu   -0.00457    0.00071   -0.00295
 20 Cu   -0.01736    0.00001    0.00844
 21 Cu   -0.00366    0.00711    0.00616
 22 Cu   -0.01173   -0.00737   -0.00257
 23 Cu   -0.00969    0.00049    0.01186
 24 Cu    0.01249   -0.00659   -0.00365
 25 Cu    0.00205   -0.00472    0.00431
 26 Cu    0.00263    0.00215   -0.00286
 27 Cu    0.00448   -0.00020    0.00368
 28 Cu    0.00588   -0.00611    0.01233
 29 Cu   -0.00235    0.00457    0.00698
 30 Cu    0.00510    0.00441   -0.00562
 31 Cu   -0.00224   -0.00022    0.00716
 32 Cu    0.00404   -0.00320    0.00109
 33 Cu   -0.00826    0.00539    0.00339
 34 Cu    0.00427    0.00455    0.01698
 35 Cu   -0.00500    0.00268    0.00079
 36 Cu   -0.00088   -0.00062   -0.01288
 37 Cu    0.00412    0.00005   -0.01191
 38 Cu    0.00087   -0.00017   -0.01114
 39 Cu   -0.00502    0.00254   -0.00658
 40 Cu    0.00324   -0.00248   -0.00393
 41 Cu    0.00118   -0.00409    0.00053
 42 Cu    0.01338   -0.00203    0.00191
 43 Cu   -0.00362    0.00504   -0.00590
 44 Cu   -0.00507    0.00562    0.00211
 45 Cu   -0.00402    0.00323    0.00756
 46 Cu   -0.01894    0.01710    0.00207
 47 Cu   -0.00055    0.00284   -0.00339
 48 Cu    0.00910    0.00894   -0.01010
 49 Cu    0.00380   -0.00469   -0.00322
 50 Cu    0.00162   -0.00077   -0.00439
 51 Cu    0.00536   -0.00779    0.00015
 52 Cu   -0.00987   -0.00049    0.00224
 53 Cu    0.00004    0.00564   -0.01766
 54 Cl   -0.00896    0.00735   -0.01057
 55 Cl   -0.00183   -0.00087    0.00281
 56 Cl    0.01708   -0.00806   -0.00619
 57 Cl   -0.00066    0.00021   -0.00045
 58 Cl    0.00909   -0.00467   -0.00136
 59 Cl   -0.00003   -0.00322   -0.00475

Timing:                                      incl.     excl.
-------------------------------------------------------------------
Density initialized from wave functions:   239.378   239.375   0.6% |
 Symmetrize density:                         0.002     0.002   0.0% |
Forces:                                    941.960   941.960   2.5% ||
Hamiltonian:                               396.420     0.865   0.0% |
 Atomic:                                     8.183     1.683   0.0% |
  XC Correction:                             6.500     6.500   0.0% |
 Calculate atomic Hamiltonians:             82.432    82.432   0.2% |
 Communicate:                               13.874    13.874   0.0% |
 Initialize Hamiltonian:                     0.001     0.001   0.0% |
 Poisson:                                    0.257     0.257   0.0% |
 XC 3D grid:                               290.807    41.342   0.1% |
  VdW-DF integral:                         249.464    12.042   0.0% |
   Convolution:                             17.732    17.732   0.0% |
   FFT:                                      8.556     8.556   0.0% |
   gather:                                  83.361    83.361   0.2% |
   hmm1:                                     5.460     5.460   0.0% |
   hmm2:                                    12.856    12.856   0.0% |
   iFFT:                                     9.634     9.634   0.0% |
   potential:                               94.756     1.316   0.0% |
    collect:                                14.320    14.320   0.0% |
    p1:                                     43.476    43.476   0.1% |
    p2:                                     19.137    19.137   0.1% |
    sum:                                    16.507    16.507   0.0% |
   splines:                                  5.067     5.067   0.0% |
LCAO initialization:                       214.906     0.517   0.0% |
 LCAO eigensolver:                          14.865     0.001   0.0% |
  Blacs Orbital Layouts:                     0.509     0.001   0.0% |
   General diagonalize:                      0.499     0.499   0.0% |
   Redistribute coefs:                       0.006     0.006   0.0% |
   Send coefs to domains:                    0.004     0.004   0.0% |
  Calculate projections:                     0.008     0.008   0.0% |
  Distribute overlap matrix:                13.998     0.001   0.0% |
   Scalapack redistribute:                   0.010     0.010   0.0% |
   blocked summation:                       13.987    13.987   0.0% |
  Potential matrix:                          0.142     0.142   0.0% |
  SparseAtomicCorrection:                    0.025     0.025   0.0% |
  Sum over cells:                            0.181     0.181   0.0% |
 LCAO to grid:                             197.225   197.225   0.5% |
 Set positions (LCAO WFS):                   2.298     0.028   0.0% |
  Basic WFS set positions:                   0.002     0.002   0.0% |
  Basis functions set positions:             0.000     0.000   0.0% |
  P tci:                                     0.027     0.027   0.0% |
  ST tci:                                    0.410     0.410   0.0% |
  Scalapack redistribute:                    0.048     0.048   0.0% |
  blocked summation:                         1.633     1.633   0.0% |
  mktci:                                     0.149     0.149   0.0% |
PWDescriptor:                                0.722     0.722   0.0% |
Redistribute:                                0.071     0.071   0.0% |
SCF-cycle:                               35984.882  2058.809   5.4% |-|
 Davidson:                               25295.967  5841.307  15.3% |-----|
  Apply H:                                2867.538  2821.554   7.4% |--|
   HMM T:                                   45.985    45.985   0.1% |
  Subspace diag:                          4475.518     0.171   0.0% |
   calc_h_matrix:                         3431.155   634.410   1.7% ||
    Apply H:                              2796.745  2745.598   7.2% |--|
     HMM T:                                 51.147    51.147   0.1% |
   diagonalize:                            122.762   122.762   0.3% |
   rotate_psi:                             921.429   921.429   2.4% ||
  calc. matrices:                         9607.980  3999.273  10.5% |---|
   Apply H:                               5608.707  5517.060  14.5% |-----|
    HMM T:                                  91.647    91.647   0.2% |
  diagonalize:                             861.839   861.839   2.3% ||
  rotate_psi:                             1641.785  1641.785   4.3% |-|
 Density:                                 3134.275     0.033   0.0% |
  Atomic density matrices:                  10.407    10.407   0.0% |
  Mix:                                    1409.157  1409.157   3.7% ||
  Multipole moments:                         0.758     0.758   0.0% |
  Pseudo density:                         1713.919  1713.889   4.5% |-|
   Symmetrize density:                       0.030     0.030   0.0% |
 Hamiltonian:                             5335.761    11.901   0.0% |
  Atomic:                                  117.404    30.246   0.1% |
   XC Correction:                           87.158    87.158   0.2% |
  Calculate atomic Hamiltonians:          1127.397  1127.397   3.0% ||
  Communicate:                             173.834   173.834   0.5% |
  Poisson:                                   3.476     3.476   0.0% |
  XC 3D grid:                             3901.749   550.936   1.4% ||
   VdW-DF integral:                       3350.813   152.852   0.4% |
    Convolution:                           229.668   229.668   0.6% |
    FFT:                                   115.322   115.322   0.3% |
    gather:                               1220.979  1220.979   3.2% ||
    hmm1:                                   73.850    73.850   0.2% |
    hmm2:                                  171.649   171.649   0.5% |
    iFFT:                                  125.527   125.527   0.3% |
    potential:                            1260.958    17.678   0.0% |
     collect:                              187.610   187.610   0.5% |
     p1:                                   577.036   577.036   1.5% ||
     p2:                                   249.707   249.707   0.7% |
     sum:                                  228.927   228.927   0.6% |
    splines:                                 0.008     0.008   0.0% |
 Orthonormalize:                           160.069     0.020   0.0% |
  calc_s_matrix:                            21.729    21.729   0.1% |
  inverse-cholesky:                          5.029     5.029   0.0% |
  projections:                              98.433    98.433   0.3% |
  rotate_psi_s:                             34.858    34.858   0.1% |
Set symmetry:                                0.001     0.001   0.0% |
Other:                                     299.790   299.790   0.8% |
-------------------------------------------------------------------
Total:                                             38078.128 100.0%

Memory usage: 1.23 GiB
Date: Mon Oct 17 20:23:56 2022
