
  ___ ___ ___ _ _ _  
 |   |   |_  | | | | 
 | | | | | . | | | | 
 |__ |  _|___|_____|  22.1.0
 |___|_|             

User:   thorkong@node026.cluster
Date:   Fri Oct 14 15:30:36 2022
Arch:   x86_64
Pid:    19916
Python: 3.10.5
gpaw:   /groups/kemi/thorkong/miniconda3/envs/gpaw22/lib/python3.10/site-packages/gpaw
_gpaw:  /groups/kemi/thorkong/miniconda3/envs/gpaw22/lib/python3.10/site-packages/
        _gpaw.cpython-310-x86_64-linux-gnu.so
ase:    /groups/kemi/thorkong/miniconda3/envs/gpaw22/lib/python3.10/site-packages/ase (version 3.22.1)
numpy:  /groups/kemi/thorkong/miniconda3/envs/gpaw22/lib/python3.10/site-packages/numpy (version 1.23.0)
scipy:  /groups/kemi/thorkong/miniconda3/envs/gpaw22/lib/python3.10/site-packages/scipy (version 1.8.1)
libxc:  5.2.3
units:  Angstrom and eV
cores: 32
OpenMP: True
OMP_NUM_THREADS: 1

Input parameters:
  basis: dzp
  kpts: [4 4 1]
  mode: {ecut: 600.0,
         name: pw}
  xc: BEEF-vdW

System changes: positions, numbers, cell, pbc, initial_charges, initial_magmoms 

Initialize ...

Cu-setup:
  name: Copper
  id: f1c4d45d90492f1bbfdcb091e8418fdf
  Z: 29.0
  valence: 11
  core: 18
  charge: 0.0
  file: /groups/kemi/thorkong/miniconda3/envs/gpaw22/share/gpaw/Cu.PBE.gz
  compensation charges: gauss, rc=0.33, lmax=2
  cutoffs: 2.06(filt), 2.43(core),
  valence states:
                energy  radius
    4s(1.00)    -4.609   1.164
    4p(0.00)    -0.698   1.164
    3d(10.00)    -5.039   1.058
    *s          22.603   1.164
    *p          26.513   1.164
    *d          22.172   1.058

  LCAO basis set for Cu:
    Name: dzp
    File: /groups/kemi/thorkong/miniconda3/envs/gpaw22/share/gpaw/Cu.dzp.basis.gz
    Number of radial functions: 5
    Number of spherical harmonics: 15
      l=0, rc=8.9688 Bohr: 4s-sz confined orbital
      l=2, rc=5.1719 Bohr: 3d-sz confined orbital
      l=0, rc=5.3281 Bohr: 4s-dz split-valence wave
      l=2, rc=3.1406 Bohr: 3d-dz split-valence wave
      l=1, rc=8.9688 Bohr: p-type Gaussian polarization

Cl-setup:
  name: Chlorine
  id: 726897f06f34e53cf8e33b5885a02604
  Z: 17.0
  valence: 7
  core: 10
  charge: 0.0
  file: /groups/kemi/thorkong/miniconda3/envs/gpaw22/share/gpaw/Cl.PBE.gz
  compensation charges: gauss, rc=0.25, lmax=2
  cutoffs: 1.40(filt), 1.49(core),
  valence states:
                energy  radius
    3s(2.00)   -20.689   0.794
    3p(5.00)    -8.594   0.794
    *s           6.523   0.794
    *p          18.617   0.794
    *d           0.000   0.794

  LCAO basis set for Cl:
    Name: dzp
    File: /groups/kemi/thorkong/miniconda3/envs/gpaw22/share/gpaw/Cl.dzp.basis.gz
    Number of radial functions: 5
    Number of spherical harmonics: 13
      l=0, rc=5.1719 Bohr: 3s-sz confined orbital
      l=1, rc=6.2656 Bohr: 3p-sz confined orbital
      l=0, rc=2.8281 Bohr: 3s-dz split-valence wave
      l=1, rc=3.5156 Bohr: 3p-dz split-valence wave
      l=2, rc=6.2656 Bohr: d-type Gaussian polarization

Reference energy: -3341984.127726

Spin-paired calculation

Convergence criteria:
 Maximum [total energy] change in last 3 cyles: 0.0005 eV / electron
 Maximum integral of absolute [dens]ity change: 0.0001 electrons / valence electron
 Maximum integral of absolute [eigenst]ate change: 4e-08 eV^2 / valence electron
 Maximum number of scf [iter]ations: 333
 (Square brackets indicate name in SCF output, whereas a 'c' in
 the SCF output indicates the quantity has converged.)

Symmetries present (total): 1

  ( 1  0  0)
  ( 0  1  0)
  ( 0  0  1)

16 k-points: 4 x 4 x 1 Monkhorst-Pack grid
8 k-points in the irreducible part of the Brillouin zone
       k-points in crystal coordinates                weights
   0:     0.12500000   -0.37500000    0.00000000          2/16
   1:     0.12500000   -0.12500000    0.00000000          2/16
   2:     0.12500000    0.12500000    0.00000000          2/16
   3:     0.12500000    0.37500000    0.00000000          2/16
   4:     0.37500000   -0.37500000    0.00000000          2/16
   5:     0.37500000   -0.12500000    0.00000000          2/16
   6:     0.37500000    0.12500000    0.00000000          2/16
   7:     0.37500000    0.37500000    0.00000000          2/16

Wave functions: Plane wave expansion
  Cutoff energy: 600.000 eV
  Number of coefficients (min, max): 66642, 66743
  Pulay-stress correction: 0.000000 eV/Ang^3 (de/decut=0.000000)
  Using FFTW library
  ScaLapack parameters: grid=2x2, blocksize=64
  Wavefunction extrapolation:
    Improved wavefunction reuse through dual PAW basis 

Occupation numbers: Fermi-Dirac: width=0.1000 eV
 

Eigensolver
   Davidson(niter=2) 

Densities:
  Coarse grid: 45*42*196 grid
  Fine grid: 90*84*392 grid
  Total Charge: 0.000000 

Density mixing:
  Method: separate
  Backend: pulay
  Linear mixing parameter: 0.05
  Mixing with 5 old densities
  Damping of long wave oscillations: 50 

Hamiltonian:
  XC and Coulomb potentials evaluated on a 90*84*392 grid
  Using the BEEF-vdW Exchange-Correlation functional
  External potential:
    NoExternalPotential
 

XC parameters: BEEF-vdW with 2 nearest neighbor stencil

Memory estimate:
  Process memory now: 249.45 MiB
  Calculator: 1170.14 MiB
    Density: 47.57 MiB
      Arrays: 18.37 MiB
      Localized functions: 22.13 MiB
      Mixer: 7.07 MiB
    Hamiltonian: 12.55 MiB
      Arrays: 12.01 MiB
      XC: 0.00 MiB
      Poisson: 0.00 MiB
      vbar: 0.54 MiB
    Wavefunctions: 1110.02 MiB
      Arrays psit_nG: 522.45 MiB
      Eigensolver: 567.71 MiB
      Projections: 2.74 MiB
      Projectors: 2.55 MiB
      PW-descriptor: 14.58 MiB

Total number of cores used: 32
Parallelization over k-points: 8
Domain decomposition: 1 x 1 x 4
                      2 x 2 x 8 (xc only)

Number of atoms: 80
Number of atomic orbitals: 1184
Number of bands in calculation: 513
Number of valence electrons: 848
Bands to converge: occupied

... initialized

Initializing position-dependent things.

Density initialized from atomic densities
Creating initial wave functions:
  513 bands from LCAO basis set

      .------------------.  
     /|                  |  
    / |                  |  
   /  |                  |  
  /   |                  |  
 *    |                  |  
 |    |                  |  
 |    |                  |  
 |    |                  |  
 |    |                  |  
 |    |                  |  
 |    |     Cl    Cl     |  
 |    |                  |  
 |    |                  |  
 |Cl  |  Cl  CuCu    Cu  |  
 |    |                  |  
 |  CuCu   CCu   CuCu    |  
 |    |  Cu    Cu    Cu  |  
 |    |                  |  
 |Cu  Cu    CuCu   Cu    |  
 |  Cu|  CCu   CuCu  Cu  |  
 |    |                  |  
 |Cu  CuCu  CuCu   Cu    |  
 |  Cu|  CuCuCuCuCu  Cu  |  
 |    |                  |  
 |Cu  | Cu    Cu         |  
 |  CuCu CuCCu CuCuCuCu  |  
 |    |                  |  
 |Cu  |       Cu         |  
 |  CuCu CCuCu CuCuCuCu  |  
 |    |Cu    Cu    Cu    |  
 |    |                  |  
 |CuCuCuCuCuCuCuCCuCu    |  
 |    |                  |  
 |    |                  |  
 |    |       Cl     Cl  |  
 |    |                  |  
 |    |                  |  
 |    |                  |  
 |    |                  |  
 |    |                  |  
 |    |                  |  
 |    .------------------.  
 |   /                  /   
 |  /                  /    
 | /                  /     
 |/                  /      
 *------------------*       

Positions:
   0 Cu     2.893249   -0.009013   10.079935    ( 0.0000,  0.0000,  0.0000)
   1 Cu     1.591035    1.857611   11.262661    ( 0.0000,  0.0000,  0.0000)
   2 Cu     4.201834    1.841809   11.295676    ( 0.0000,  0.0000,  0.0000)
   3 Cu     0.277666   -0.009469   10.084997    ( 0.0000,  0.0000,  0.0000)
   4 Cu     0.277849    0.003618   12.626767    ( 0.0000,  0.0000,  0.0000)
   5 Cu     4.202668    1.862513   13.923708    ( 0.0000,  0.0000,  0.0000)
   6 Cu     1.586463    1.852775   13.921192    ( 0.0000,  0.0000,  0.0000)
   7 Cu     2.889400    0.003545   12.629227    ( 0.0000,  0.0000,  0.0000)
   8 Cu     2.895466   -0.000271   15.229461    ( 0.0000,  0.0000,  0.0000)
   9 Cu     1.588247    1.851385   16.545856    ( 0.0000,  0.0000,  0.0000)
  10 Cu     4.201591    1.852496   16.545727    ( 0.0000,  0.0000,  0.0000)
  11 Cu     0.277809    0.001734   15.236454    ( 0.0000,  0.0000,  0.0000)
  12 Cu     0.278211    0.000883   17.850829    ( 0.0000,  0.0000,  0.0000)
  13 Cu     4.204728    1.850775   19.171325    ( 0.0000,  0.0000,  0.0000)
  14 Cu     1.584458    1.852521   19.171085    ( 0.0000,  0.0000,  0.0000)
  15 Cu     2.894601    0.002325   17.849783    ( 0.0000,  0.0000,  0.0000)
  16 Cu     2.894236    0.012687   20.468701    ( 0.0000,  0.0000,  0.0000)
  17 Cu     1.584204    1.855644   21.820509    ( 0.0000,  0.0000,  0.0000)
  18 Cu     4.205662    1.855442   21.821840    ( 0.0000,  0.0000,  0.0000)
  19 Cu     0.277320    0.003097   20.469516    ( 0.0000,  0.0000,  0.0000)
  20 Cu     0.282256    0.008318   23.110120    ( 0.0000,  0.0000,  0.0000)
  21 Cu     4.232873    1.841925   24.430560    ( 0.0000,  0.0000,  0.0000)
  22 Cu     1.555398    1.844008   24.424642    ( 0.0000,  0.0000,  0.0000)
  23 Cu     2.895568   -0.008221   23.079835    ( 0.0000,  0.0000,  0.0000)
  24 Cu     2.864475    3.710782    9.962758    ( 0.0000,  0.0000,  0.0000)
  25 Cu     1.591976    5.541691   11.280182    ( 0.0000,  0.0000,  0.0000)
  26 Cu     4.202041    5.558211   11.310184    ( 0.0000,  0.0000,  0.0000)
  27 Cu     0.277822    3.707697   10.093271    ( 0.0000,  0.0000,  0.0000)
  28 Cu     0.277595    3.695861   12.630222    ( 0.0000,  0.0000,  0.0000)
  29 Cu     4.203472    5.539712   13.923294    ( 0.0000,  0.0000,  0.0000)
  30 Cu     1.585302    5.549330   13.921336    ( 0.0000,  0.0000,  0.0000)
  31 Cu     2.891979    3.696489   12.570906    ( 0.0000,  0.0000,  0.0000)
  32 Cu     2.893008    3.701406   15.220839    ( 0.0000,  0.0000,  0.0000)
  33 Cu     1.586757    5.551594   16.543688    ( 0.0000,  0.0000,  0.0000)
  34 Cu     4.203073    5.549574   16.542388    ( 0.0000,  0.0000,  0.0000)
  35 Cu     0.277652    3.699826   15.228727    ( 0.0000,  0.0000,  0.0000)
  36 Cu     0.278347    3.700871   17.844615    ( 0.0000,  0.0000,  0.0000)
  37 Cu     4.202226    5.552299   19.162667    ( 0.0000,  0.0000,  0.0000)
  38 Cu     1.587282    5.550511   19.162081    ( 0.0000,  0.0000,  0.0000)
  39 Cu     2.896094    3.699332   17.846167    ( 0.0000,  0.0000,  0.0000)
  40 Cu     2.895034    3.689744   20.468648    ( 0.0000,  0.0000,  0.0000)
  41 Cu     1.581145    5.547784   21.761122    ( 0.0000,  0.0000,  0.0000)
  42 Cu     4.208363    5.548067   21.763035    ( 0.0000,  0.0000,  0.0000)
  43 Cu     0.277513    3.699240   20.468279    ( 0.0000,  0.0000,  0.0000)
  44 Cu     0.282403    3.692379   23.126419    ( 0.0000,  0.0000,  0.0000)
  45 Cu     4.204347    5.557399   24.312269    ( 0.0000,  0.0000,  0.0000)
  46 Cu     1.585207    5.556171   24.307688    ( 0.0000,  0.0000,  0.0000)
  47 Cu     2.895682    3.707975   23.099015    ( 0.0000,  0.0000,  0.0000)
  48 Cu     6.815902    1.857266   11.266864    ( 0.0000,  0.0000,  0.0000)
  49 Cu     5.512292   -0.007627   10.084231    ( 0.0000,  0.0000,  0.0000)
  50 Cu     5.516568    0.003856   12.630858    ( 0.0000,  0.0000,  0.0000)
  51 Cu     6.820227    1.852728   13.924166    ( 0.0000,  0.0000,  0.0000)
  52 Cu     6.819210    1.851175   16.547654    ( 0.0000,  0.0000,  0.0000)
  53 Cu     5.510471    0.001413   15.229784    ( 0.0000,  0.0000,  0.0000)
  54 Cu     5.510806    0.000434   17.848219    ( 0.0000,  0.0000,  0.0000)
  55 Cu     6.820027    1.852260   19.163515    ( 0.0000,  0.0000,  0.0000)
  56 Cu     6.820094    1.855667   21.761999    ( 0.0000,  0.0000,  0.0000)
  57 Cu     5.512423    0.002682   20.470960    ( 0.0000,  0.0000,  0.0000)
  58 Cu     5.506106    0.008663   23.111884    ( 0.0000,  0.0000,  0.0000)
  59 Cu     6.819522    1.843288   24.299220    ( 0.0000,  0.0000,  0.0000)
  60 Cu     6.814604    5.542052   11.281643    ( 0.0000,  0.0000,  0.0000)
  61 Cu     5.541587    3.708289    9.968467    ( 0.0000,  0.0000,  0.0000)
  62 Cu     5.513459    3.696217   12.572367    ( 0.0000,  0.0000,  0.0000)
  63 Cu     6.820366    5.548841   13.922651    ( 0.0000,  0.0000,  0.0000)
  64 Cu     6.819498    5.551245   16.541105    ( 0.0000,  0.0000,  0.0000)
  65 Cu     5.513131    3.699586   15.221299    ( 0.0000,  0.0000,  0.0000)
  66 Cu     5.509488    3.700623   17.846432    ( 0.0000,  0.0000,  0.0000)
  67 Cu     6.819828    5.550615   19.155631    ( 0.0000,  0.0000,  0.0000)
  68 Cu     6.819845    5.546713   21.765705    ( 0.0000,  0.0000,  0.0000)
  69 Cu     5.511227    3.699174   20.471342    ( 0.0000,  0.0000,  0.0000)
  70 Cu     5.505644    3.692016   23.130762    ( 0.0000,  0.0000,  0.0000)
  71 Cu     6.819911    5.559715   24.306944    ( 0.0000,  0.0000,  0.0000)
  72 Cl     2.887818    1.790073   26.301630    ( 0.0000,  0.0000,  0.0000)
  73 Cl     4.208862    3.653676    8.090793    ( 0.0000,  0.0000,  0.0000)
  74 Cl     5.387818    5.590073   26.301630    ( 0.0000,  0.0000,  0.0000)
  75 Cl     1.608862   -0.146324    8.090793    ( 0.0000,  0.0000,  0.0000)
  76 Cl     4.308862   -0.046324    8.090793    ( 0.0000,  0.0000,  0.0000)
  77 Cl     2.887818    5.490073   26.301630    ( 0.0000,  0.0000,  0.0000)
  78 Cl     7.208862    3.753676    8.090793    ( 0.0000,  0.0000,  0.0000)
  79 Cl     0.087818    1.790073   26.301630    ( 0.0000,  0.0000,  0.0000)

Unit cell:
           periodic     x           y           z      points  spacing
  1. axis:    yes    7.851007    0.000000    0.000000    45     0.1745
  2. axis:    yes    0.000000    7.402000    0.000000    42     0.1762
  3. axis:    yes    0.000000    0.000000   34.393512   196     0.1755

  Lengths:   7.851007   7.402000  34.393512
  Angles:   90.000000  90.000000  90.000000

Effective grid spacing dv^(1/3) = 0.1754

     iter     time        total  log10-change:
                         energy  eigst   dens
iter:   1 15:40:25 -6308.470718
iter:   2 15:41:47 -8821.231300  +1.91  -0.72
iter:   3 15:43:15 -5892.494882  +2.05  -0.43
iter:   4 15:44:40 -6020.393617  +0.51  -1.01
iter:   5 15:46:00 -6537.486885  +0.61  -0.99
iter:   6 15:47:20 -5837.564159  -0.71  -0.72
iter:   7 15:48:41 -6090.107719  -1.09  -1.26
iter:   8 15:50:01 -5839.852652  -0.14  -0.96
iter:   9 15:51:27 -5776.682193  -1.31  -1.35
iter:  10 15:52:51 -5762.530540  -2.00  -1.49
iter:  11 15:54:13 -5768.797457  -2.17  -1.53
iter:  12 15:55:35 -5776.977051  -2.15  -1.52
iter:  13 15:56:58 -5751.120409  -1.74  -1.49
iter:  14 15:58:36 -5752.715131  -1.66  -1.64
iter:  15 16:00:00 -5750.092761  -2.35  -1.67
iter:  16 16:01:33 -5746.834614  -2.30  -1.71
iter:  17 16:02:56 -5747.672348  -2.13  -1.80
iter:  18 16:04:28 -5748.157205  -2.34  -1.90
iter:  19 16:06:02 -5747.881482  -2.90  -2.03
iter:  20 16:07:30 -5747.179100  -2.88  -2.10
iter:  21 16:08:53 -5746.751399  -3.28  -2.20
iter:  22 16:10:33 -5746.185187  -2.52  -2.23
iter:  23 16:11:55 -5746.390234  -3.02  -2.49
iter:  24 16:13:19 -5746.128522c -3.54  -2.63
iter:  25 16:14:47 -5746.063341c -3.34  -2.75
iter:  26 16:16:20 -5746.007767c -3.81  -2.72
iter:  27 16:17:41 -5746.024445c -3.78  -2.82
iter:  28 16:19:26 -5746.016086c -4.50  -3.08
iter:  29 16:20:51 -5745.995374c -4.48  -3.06
iter:  30 16:22:13 -5745.992115c -5.39  -3.25
iter:  31 16:23:34 -5745.995471c -4.97  -3.42
iter:  32 16:24:56 -5745.995922c -5.63  -3.34
iter:  33 16:26:17 -5745.992217c -4.98  -3.29
iter:  34 16:27:40 -5745.989603c -5.68  -3.56
iter:  35 16:29:04 -5745.989084c -6.63  -3.78
iter:  36 16:30:26 -5745.988794c -6.08  -3.86
iter:  37 16:31:51 -5745.988900c -5.90  -3.85
iter:  38 16:33:14 -5745.989022c -6.96  -4.28c
iter:  39 16:34:34 -5745.988769c -6.48  -4.35c
iter:  40 16:35:57 -5745.988908c -6.74  -4.42c
iter:  41 16:37:19 -5745.988827c -7.44c -4.64c

Converged after 41 iterations.

Dipole moment: (-71.416572, 14.000535, 0.129183) |e|*Ang

Energy contributions relative to reference atoms: (reference = -3341984.127726)

Kinetic:       +563.240648
Potential:     -619.350604
External:        +0.000000
XC:            -5688.587098
Entropy (-ST):   -0.799351
Local:           -0.892097
--------------------------
Free energy:   -5746.388503
Extrapolated:  -5745.988827

Showing only first 2 kpts
 Kpt  Band  Eigenvalues  Occupancy
  0   422      0.25916    1.03120
  0   423      0.28554    0.89968
  0   424      0.37840    0.48832
  0   425      0.41338    0.37091

  1   422     -0.06212    1.92714
  1   423      0.00835    1.85788
  1   424      0.05984    1.77304
  1   425      0.12785    1.59655


Fermi level: 0.26540

No gap

Forces in eV/Ang:
  0 Cu    0.07059    0.00404   -0.87959
  1 Cu    0.02015    0.09436    0.31660
  2 Cu    0.00264    0.13145    0.17084
  3 Cu    0.17426   -0.01773   -0.87038
  4 Cu   -0.03542   -0.00453   -0.16756
  5 Cu    0.00042   -0.00386    0.03478
  6 Cu    0.00133   -0.00970    0.06495
  7 Cu    0.02123    0.00081   -0.15969
  8 Cu    0.00325    0.00254   -0.02063
  9 Cu   -0.00991    0.00186    0.03280
 10 Cu    0.00523   -0.00524    0.02878
 11 Cu   -0.00578   -0.00518   -0.07954
 12 Cu    0.00431   -0.00047   -0.04605
 13 Cu    0.01138    0.00140    0.08286
 14 Cu   -0.00476   -0.00148    0.02321
 15 Cu    0.00066   -0.00456   -0.02673
 16 Cu    0.00348   -0.00388   -0.04405
 17 Cu    0.00366   -0.00209    0.04536
 18 Cu    0.02923   -0.00432    0.06239
 19 Cu    0.00115    0.01919   -0.06077
 20 Cu    0.01745   -0.15192   -0.29058
 21 Cu   -0.23760   -0.00388    0.37534
 22 Cu    0.05586    0.00314    0.28664
 23 Cu   -0.01123    0.14322   -0.17342
 24 Cu    0.25692   -0.02908   -0.38663
 25 Cu    0.02121   -0.09720    0.31101
 26 Cu    0.01193   -0.14290    0.17054
 27 Cu    0.16435   -0.01812   -0.34158
 28 Cu    0.03517    0.00882   -0.16079
 29 Cu   -0.00111    0.00433    0.03919
 30 Cu    0.00199    0.01114    0.05533
 31 Cu   -0.03753    0.00871   -0.06846
 32 Cu   -0.01172   -0.00238   -0.07970
 33 Cu    0.00598   -0.00573    0.03806
 34 Cu   -0.00057    0.00454    0.02663
 35 Cu    0.00583    0.00544   -0.03241
 36 Cu   -0.00525    0.00118   -0.02528
 37 Cu   -0.00215   -0.00310    0.02622
 38 Cu   -0.00286   -0.00053    0.06632
 39 Cu   -0.00447    0.00495   -0.02614
 40 Cu    0.00036    0.00615   -0.03822
 41 Cu   -0.00597    0.00631    0.15655
 42 Cu   -0.02132    0.00175    0.18056
 43 Cu    0.00431   -0.01814   -0.05668
 44 Cu    0.00650    0.14320   -0.29910
 45 Cu   -0.10226   -0.00233    0.50117
 46 Cu    0.11154   -0.01645    0.80343
 47 Cu   -0.00778   -0.14633   -0.20614
 48 Cu   -0.01305   -0.14639    0.30417
 49 Cu   -0.10628   -0.00036   -0.82209
 50 Cu    0.01858   -0.00581   -0.16417
 51 Cu   -0.00234    0.01976    0.05880
 52 Cu    0.00537   -0.00204    0.02660
 53 Cu    0.00353    0.00152   -0.06767
 54 Cu   -0.00373    0.00477   -0.03956
 55 Cu   -0.00631   -0.00501    0.03270
 56 Cu   -0.03137   -0.00855    0.16248
 57 Cu   -0.00449   -0.00730   -0.06120
 58 Cu   -0.01440    0.09689   -0.30270
 59 Cu   -0.00388    0.00245    0.67588
 60 Cu   -0.02171    0.13526    0.30256
 61 Cu    0.02452   -0.00218   -0.47950
 62 Cu    0.00579    0.00251   -0.03931
 63 Cu   -0.00076   -0.01673    0.05844
 64 Cu   -0.00558    0.00102    0.04556
 65 Cu    0.00622    0.00073   -0.02282
 66 Cu    0.00998   -0.00132   -0.03475
 67 Cu    0.00517    0.00470    0.07696
 68 Cu    0.02513    0.00640    0.16252
 69 Cu   -0.00292    0.00905   -0.06680
 70 Cu   -0.00455   -0.11101   -0.32315
 71 Cu   -0.15453   -0.00392    0.80235
 72 Cl    1.91983    0.01116   -0.46376
 73 Cl   -1.24370   -0.02056    0.54461
 74 Cl    3.23503    0.09021   -0.56867
 75 Cl   -2.19761    0.01392    0.88818
 76 Cl    2.08485    0.08501    0.92457
 77 Cl   -3.10200   -0.08388   -0.73237
 78 Cl    0.74842   -0.00301    0.34605
 79 Cl   -1.70492    0.02235   -0.56134

System changes: positions 

Initializing position-dependent things.

Density initialized from wave functions
      .------------------.  
     /|                  |  
    / |                  |  
   /  |                  |  
  /   |                  |  
 *    |                  |  
 |    |                  |  
 |    |                  |  
 |    |                  |  
 |    |                  |  
 |    |                  |  
 |    |    Cl     Cl     |  
 |    |                  |  
 |    |                  |  
 |    |CuCl    Cu    Cl  |  
 |    |                  |  
 |  CuCu   CCu   CuCu    |  
 |    |  Cu    Cu    Cu  |  
 |    |                  |  
 |    CuCu  CuCu   Cu    |  
 |  Cu|  CCu   CuCu  Cu  |  
 |    |                  |  
 |Cu  CuCu  CuCu   Cu    |  
 |  Cu|  CuCuCuCuCu  Cu  |  
 |    |                  |  
 |Cu  | Cu    Cu         |  
 |  CuCu CCuCu CuCuCuCu  |  
 |    |                  |  
 |Cu  |       Cu         |  
 |  CuCu CCuCu CuCuCuCu  |  
 |    |Cu    Cu    Cu    |  
 |    |                  |  
 |CuCuCuCuCuCuCu CuCu    |  
 |    |                  |  
 |    |                  |  
 |    |      Cl      Cl  |  
 |    |                  |  
 |    |                  |  
 |    |                  |  
 |    |                  |  
 |    |                  |  
 |    |                  |  
 |    .------------------.  
 |   /                  /   
 |  /                  /    
 | /                  /     
 |/                  /      
 *------------------*       

Positions:
   0 Cu     2.897546   -0.008767   10.026397    ( 0.0000,  0.0000,  0.0000)
   1 Cu     1.592261    1.863354   11.281932    ( 0.0000,  0.0000,  0.0000)
   2 Cu     4.201995    1.849810   11.306075    ( 0.0000,  0.0000,  0.0000)
   3 Cu     0.288272   -0.010548   10.032020    ( 0.0000,  0.0000,  0.0000)
   4 Cu     0.275693    0.003343   12.616568    ( 0.0000,  0.0000,  0.0000)
   5 Cu     4.202693    1.862278   13.925825    ( 0.0000,  0.0000,  0.0000)
   6 Cu     1.586544    1.852184   13.925145    ( 0.0000,  0.0000,  0.0000)
   7 Cu     2.890692    0.003595   12.619507    ( 0.0000,  0.0000,  0.0000)
   8 Cu     2.895664   -0.000116   15.228205    ( 0.0000,  0.0000,  0.0000)
   9 Cu     1.587644    1.851498   16.547852    ( 0.0000,  0.0000,  0.0000)
  10 Cu     4.201909    1.852177   16.547479    ( 0.0000,  0.0000,  0.0000)
  11 Cu     0.277457    0.001419   15.231613    ( 0.0000,  0.0000,  0.0000)
  12 Cu     0.278473    0.000854   17.848026    ( 0.0000,  0.0000,  0.0000)
  13 Cu     4.205421    1.850860   19.176369    ( 0.0000,  0.0000,  0.0000)
  14 Cu     1.584168    1.852431   19.172498    ( 0.0000,  0.0000,  0.0000)
  15 Cu     2.894641    0.002047   17.848156    ( 0.0000,  0.0000,  0.0000)
  16 Cu     2.894448    0.012451   20.466020    ( 0.0000,  0.0000,  0.0000)
  17 Cu     1.584427    1.855517   21.823270    ( 0.0000,  0.0000,  0.0000)
  18 Cu     4.207441    1.855179   21.825638    ( 0.0000,  0.0000,  0.0000)
  19 Cu     0.277390    0.004265   20.465817    ( 0.0000,  0.0000,  0.0000)
  20 Cu     0.283318   -0.000929   23.092433    ( 0.0000,  0.0000,  0.0000)
  21 Cu     4.218411    1.841689   24.453405    ( 0.0000,  0.0000,  0.0000)
  22 Cu     1.558798    1.844199   24.442089    ( 0.0000,  0.0000,  0.0000)
  23 Cu     2.894884    0.000496   23.069280    ( 0.0000,  0.0000,  0.0000)
  24 Cu     2.880113    3.709012    9.939225    ( 0.0000,  0.0000,  0.0000)
  25 Cu     1.593267    5.535775   11.299112    ( 0.0000,  0.0000,  0.0000)
  26 Cu     4.202767    5.549513   11.320564    ( 0.0000,  0.0000,  0.0000)
  27 Cu     0.287825    3.706594   10.072480    ( 0.0000,  0.0000,  0.0000)
  28 Cu     0.279736    3.696398   12.620435    ( 0.0000,  0.0000,  0.0000)
  29 Cu     4.203404    5.539976   13.925679    ( 0.0000,  0.0000,  0.0000)
  30 Cu     1.585423    5.550008   13.924704    ( 0.0000,  0.0000,  0.0000)
  31 Cu     2.889695    3.697019   12.566739    ( 0.0000,  0.0000,  0.0000)
  32 Cu     2.892294    3.701261   15.215988    ( 0.0000,  0.0000,  0.0000)
  33 Cu     1.587121    5.551245   16.546005    ( 0.0000,  0.0000,  0.0000)
  34 Cu     4.203038    5.549851   16.544009    ( 0.0000,  0.0000,  0.0000)
  35 Cu     0.278007    3.700157   15.226754    ( 0.0000,  0.0000,  0.0000)
  36 Cu     0.278028    3.700943   17.843077    ( 0.0000,  0.0000,  0.0000)
  37 Cu     4.202095    5.552110   19.164263    ( 0.0000,  0.0000,  0.0000)
  38 Cu     1.587108    5.550479   19.166117    ( 0.0000,  0.0000,  0.0000)
  39 Cu     2.895822    3.699633   17.844576    ( 0.0000,  0.0000,  0.0000)
  40 Cu     2.895056    3.690118   20.466321    ( 0.0000,  0.0000,  0.0000)
  41 Cu     1.580782    5.548168   21.770651    ( 0.0000,  0.0000,  0.0000)
  42 Cu     4.207065    5.548173   21.774025    ( 0.0000,  0.0000,  0.0000)
  43 Cu     0.277776    3.698136   20.464829    ( 0.0000,  0.0000,  0.0000)
  44 Cu     0.282798    3.701095   23.108214    ( 0.0000,  0.0000,  0.0000)
  45 Cu     4.198123    5.557257   24.342774    ( 0.0000,  0.0000,  0.0000)
  46 Cu     1.591996    5.555170   24.356590    ( 0.0000,  0.0000,  0.0000)
  47 Cu     2.895209    3.699068   23.086468    ( 0.0000,  0.0000,  0.0000)
  48 Cu     6.815108    1.848356   11.285378    ( 0.0000,  0.0000,  0.0000)
  49 Cu     5.505823   -0.007649   10.034193    ( 0.0000,  0.0000,  0.0000)
  50 Cu     5.517699    0.003503   12.620866    ( 0.0000,  0.0000,  0.0000)
  51 Cu     6.820084    1.853931   13.927745    ( 0.0000,  0.0000,  0.0000)
  52 Cu     6.819537    1.851051   16.549273    ( 0.0000,  0.0000,  0.0000)
  53 Cu     5.510686    0.001506   15.225665    ( 0.0000,  0.0000,  0.0000)
  54 Cu     5.510579    0.000724   17.845811    ( 0.0000,  0.0000,  0.0000)
  55 Cu     6.819643    1.851955   19.165505    ( 0.0000,  0.0000,  0.0000)
  56 Cu     6.818185    1.855146   21.771889    ( 0.0000,  0.0000,  0.0000)
  57 Cu     5.512150    0.002238   20.467235    ( 0.0000,  0.0000,  0.0000)
  58 Cu     5.505230    0.014560   23.093460    ( 0.0000,  0.0000,  0.0000)
  59 Cu     6.819286    1.843437   24.340359    ( 0.0000,  0.0000,  0.0000)
  60 Cu     6.813282    5.550285   11.300059    ( 0.0000,  0.0000,  0.0000)
  61 Cu     5.543079    3.708156    9.939281    ( 0.0000,  0.0000,  0.0000)
  62 Cu     5.513812    3.696370   12.569974    ( 0.0000,  0.0000,  0.0000)
  63 Cu     6.820320    5.547822   13.926208    ( 0.0000,  0.0000,  0.0000)
  64 Cu     6.819158    5.551307   16.543878    ( 0.0000,  0.0000,  0.0000)
  65 Cu     5.513510    3.699631   15.219910    ( 0.0000,  0.0000,  0.0000)
  66 Cu     5.510096    3.700542   17.844317    ( 0.0000,  0.0000,  0.0000)
  67 Cu     6.820143    5.550901   19.160315    ( 0.0000,  0.0000,  0.0000)
  68 Cu     6.821375    5.547103   21.775597    ( 0.0000,  0.0000,  0.0000)
  69 Cu     5.511049    3.699725   20.467276    ( 0.0000,  0.0000,  0.0000)
  70 Cu     5.505367    3.685259   23.111093    ( 0.0000,  0.0000,  0.0000)
  71 Cu     6.810505    5.559476   24.355780    ( 0.0000,  0.0000,  0.0000)
  72 Cl     3.004672    1.790752   26.273403    ( 0.0000,  0.0000,  0.0000)
  73 Cl     4.133162    3.652425    8.123941    ( 0.0000,  0.0000,  0.0000)
  74 Cl     5.584724    5.595564   26.267017    ( 0.0000,  0.0000,  0.0000)
  75 Cl     1.475101   -0.145477    8.144854    ( 0.0000,  0.0000,  0.0000)
  76 Cl     4.435760   -0.041150    8.147068    ( 0.0000,  0.0000,  0.0000)
  77 Cl     2.699010    5.484968   26.257053    ( 0.0000,  0.0000,  0.0000)
  78 Cl     7.254416    3.753493    8.111856    ( 0.0000,  0.0000,  0.0000)
  79 Cl    -0.015954    1.791434   26.267463    ( 0.0000,  0.0000,  0.0000)

Unit cell:
           periodic     x           y           z      points  spacing
  1. axis:    yes    7.851007    0.000000    0.000000    45     0.1745
  2. axis:    yes    0.000000    7.402000    0.000000    42     0.1762
  3. axis:    yes    0.000000    0.000000   34.393512   196     0.1755

  Lengths:   7.851007   7.402000  34.393512
  Angles:   90.000000  90.000000  90.000000

Effective grid spacing dv^(1/3) = 0.1754

     iter     time        total  log10-change:
                         energy  eigst   dens
iter:   1 16:39:36 -5765.346216  -1.64
iter:   2 16:41:04 -5783.871364  -1.06  -1.53
iter:   3 16:42:37 -5766.027000  -1.26  -1.58
iter:   4 16:44:02 -5770.363658  -1.77  -1.67
iter:   5 16:45:23 -5751.509964  -2.47  -1.63
iter:   6 16:46:50 -5749.212701  -3.12  -2.11
iter:   7 16:48:23 -5748.409385  -3.23  -2.33
iter:   8 16:49:54 -5748.155515  -3.68  -2.57
iter:   9 16:51:34 -5748.117019c -4.02  -2.79
iter:  10 16:52:57 -5748.101950c -4.06  -2.97
iter:  11 16:54:41 -5748.098233c -4.47  -3.20
iter:  12 16:56:08 -5748.100790c -4.83  -3.31
iter:  13 16:57:35 -5748.094607c -5.16  -3.35
iter:  14 16:59:14 -5748.095182c -5.39  -3.46
iter:  15 17:00:35 -5748.096291c -5.40  -3.52
iter:  16 17:01:55 -5748.093113c -5.32  -3.50
iter:  17 17:03:26 -5748.092508c -6.36  -3.82
iter:  18 17:05:06 -5748.092202c -5.61  -3.93
iter:  19 17:06:51 -5748.092474c -6.86  -4.13c
iter:  20 17:08:45 -5748.092114c -6.69  -4.08c
iter:  21 17:10:19 -5748.092263c -6.52  -4.36c
iter:  22 17:11:59 -5748.092269c -7.00  -4.48c
iter:  23 17:13:19 -5748.092310c -7.73c -4.52c

Converged after 23 iterations.

Dipole moment: (-61.880683, 13.253354, -0.010217) |e|*Ang

Energy contributions relative to reference atoms: (reference = -3341984.127726)

Kinetic:       +562.308612
Potential:     -619.782242
External:        +0.000000
XC:            -5689.468645
Entropy (-ST):   -0.717074
Local:           -0.791497
--------------------------
Free energy:   -5748.450847
Extrapolated:  -5748.092310

Showing only first 2 kpts
 Kpt  Band  Eigenvalues  Occupancy
  0   422      0.31718    0.89714
  0   423      0.32507    0.85832
  0   424      0.44175    0.37935
  0   425      0.45463    0.34133

  1   422     -0.11146    1.96675
  1   423      0.01214    1.89002
  1   424      0.05629    1.83403
  1   425      0.08902    1.77694


Fermi level: 0.29654

No gap

Forces in eV/Ang:
  0 Cu    0.06154    0.00722   -0.52121
  1 Cu    0.02610    0.02226    0.20180
  2 Cu    0.00681    0.04744    0.09772
  3 Cu   -0.17667    0.02151   -0.17079
  4 Cu   -0.02116   -0.00289   -0.19366
  5 Cu    0.00219   -0.01152    0.01565
  6 Cu   -0.00491   -0.01871    0.04583
  7 Cu    0.01875   -0.00081   -0.17168
  8 Cu    0.00260    0.00173   -0.01454
  9 Cu   -0.00538    0.00291    0.01776
 10 Cu    0.00143   -0.00071    0.01307
 11 Cu   -0.00558   -0.00563   -0.06785
 12 Cu    0.00235   -0.00555   -0.03679
 13 Cu    0.00597    0.00201    0.05256
 14 Cu   -0.00118   -0.00151    0.00930
 15 Cu    0.00117   -0.00116   -0.00964
 16 Cu    0.00177   -0.01381   -0.02079
 17 Cu   -0.01508   -0.00386    0.01999
 18 Cu    0.02498   -0.00398    0.04653
 19 Cu   -0.00509    0.01766   -0.05091
 20 Cu    0.00186   -0.14117   -0.18267
 21 Cu    0.17024    0.01127   -0.22287
 22 Cu    0.02265   -0.00131    0.29589
 23 Cu   -0.01576    0.05700   -0.08818
 24 Cu   -0.10384   -0.01088    0.14577
 25 Cu    0.03276   -0.02991    0.19377
 26 Cu    0.01015   -0.05515    0.08486
 27 Cu    0.29251   -0.02623    0.17668
 28 Cu    0.00999    0.00441   -0.12616
 29 Cu   -0.00017    0.01297    0.01871
 30 Cu   -0.00558    0.02116    0.04571
 31 Cu   -0.02322    0.00432   -0.04880
 32 Cu   -0.00590   -0.00218   -0.05184
 33 Cu    0.00305   -0.00513    0.02427
 34 Cu   -0.00098    0.00099    0.00828
 35 Cu    0.00421    0.00546   -0.03194
 36 Cu   -0.00352    0.00523   -0.01698
 37 Cu   -0.00114   -0.00229    0.01568
 38 Cu   -0.00471    0.00056    0.06137
 39 Cu   -0.00058    0.00029   -0.01340
 40 Cu   -0.00124    0.01488   -0.01803
 41 Cu   -0.00778    0.00545    0.18786
 42 Cu   -0.01548    0.00163    0.13125
 43 Cu   -0.00281   -0.01638   -0.04235
 44 Cu   -0.00962    0.13262   -0.19872
 45 Cu   -0.03659   -0.00409    0.63491
 46 Cu   -0.24021    0.00366    0.09722
 47 Cu   -0.00891   -0.06131   -0.12072
 48 Cu    0.00207   -0.13863    0.18568
 49 Cu    0.35559    0.01243    0.12972
 50 Cu    0.00518   -0.00453   -0.18635
 51 Cu    0.00268    0.01692    0.04704
 52 Cu    0.00453   -0.00468    0.01603
 53 Cu    0.00327    0.00018   -0.06086
 54 Cu   -0.00256    0.00495   -0.02569
 55 Cu   -0.00418   -0.00472    0.03236
 56 Cu   -0.01273   -0.00749    0.16435
 57 Cu    0.00450   -0.01932   -0.04481
 58 Cu   -0.00745    0.05724   -0.18259
 59 Cu   -0.29033    0.01799   -0.06349
 60 Cu   -0.00592    0.12611    0.18098
 61 Cu    0.13021    0.00146   -0.27433
 62 Cu    0.01758    0.00075   -0.04031
 63 Cu    0.00552   -0.01429    0.05284
 64 Cu   -0.00188    0.00483    0.03479
 65 Cu    0.00201    0.00147   -0.01020
 66 Cu    0.00437   -0.00319   -0.02007
 67 Cu    0.00625    0.00530    0.06942
 68 Cu    0.02312    0.00417    0.18960
 69 Cu    0.00533    0.02064   -0.04545
 70 Cu   -0.00103   -0.06637   -0.20005
 71 Cu    0.05515   -0.00756    0.36589
 72 Cl    0.82391   -0.00435    0.04119
 73 Cl   -0.70982   -0.02183   -0.03432
 74 Cl    1.35733    0.02201   -0.46438
 75 Cl   -1.02380    0.01578    0.23198
 76 Cl    0.81379    0.03123    0.00191
 77 Cl   -1.15530   -0.03299   -0.26399
 78 Cl    0.29785   -0.00740   -0.14896
 79 Cl   -0.66919    0.01254    0.04449

System changes: positions 

Initializing position-dependent things.

Density initialized from wave functions
      .------------------.  
     /|                  |  
    / |                  |  
   /  |                  |  
  /   |                  |  
 *    |                  |  
 |    |                  |  
 |    |                  |  
 |    |                  |  
 |    |                  |  
 |    |                  |  
 |    |    Cl      Cl    |  
 |    |                  |  
 |    |  Cu    Cu    Cu  |  
 |    |Cu Cl         Cl  |  
 |    |                  |  
 |  CuCu  Cu Cu  CuCu    |  
 |    |  Cu    Cu  CuCu  |  
 |    |                  |  
 |    CuCu  CuCu   Cu    |  
 |  Cu|CuCCu   CuCu  Cu  |  
 |    |                  |  
 |Cu  CuCu  Cu     Cu    |  
 |  Cu|  CuCu  CuCu  Cu  |  
 |    |                  |  
 |    | Cu    Cu         |  
 |  CuCu CCuCu CuCuCuCu  |  
 |    |                  |  
 |Cu  | Cu    Cu         |  
 |  CuCu CCuCu CuCuCuCu  |  
 |    |Cu    Cu    Cu    |  
 |    |                  |  
 |CuCuCuCuCuCuCu CuCu    |  
 |    |                  |  
 |    |                  |  
 |    |      Cl      Cl  |  
 |    |                  |  
 |    |                  |  
 |    |                  |  
 |    |                  |  
 |    |                  |  
 |    |                  |  
 |    .------------------.  
 |   /                  /   
 |  /                  /    
 | /                  /     
 |/                  /      
 *------------------*       

Positions:
   0 Cu     2.906674   -0.007647    9.952385    ( 0.0000,  0.0000,  0.0000)
   1 Cu     1.596247    1.865851   11.310867    ( 0.0000,  0.0000,  0.0000)
   2 Cu     4.203066    1.855945   11.319882    ( 0.0000,  0.0000,  0.0000)
   3 Cu     0.257656   -0.006861   10.014581    ( 0.0000,  0.0000,  0.0000)
   4 Cu     0.272686    0.002928   12.587203    ( 0.0000,  0.0000,  0.0000)
   5 Cu     4.203043    1.860459   13.927950    ( 0.0000,  0.0000,  0.0000)
   6 Cu     1.585734    1.849271   13.931798    ( 0.0000,  0.0000,  0.0000)
   7 Cu     2.893476    0.003454   12.593606    ( 0.0000,  0.0000,  0.0000)
   8 Cu     2.896047    0.000134   15.226095    ( 0.0000,  0.0000,  0.0000)
   9 Cu     1.586890    1.851948   16.550341    ( 0.0000,  0.0000,  0.0000)
  10 Cu     4.202080    1.852123   16.549256    ( 0.0000,  0.0000,  0.0000)
  11 Cu     0.276623    0.000568   15.221569    ( 0.0000,  0.0000,  0.0000)
  12 Cu     0.278803   -0.000038   17.842614    ( 0.0000,  0.0000,  0.0000)
  13 Cu     4.206254    1.851169   19.183901    ( 0.0000,  0.0000,  0.0000)
  14 Cu     1.584034    1.852204   19.173730    ( 0.0000,  0.0000,  0.0000)
  15 Cu     2.894822    0.001914   17.846909    ( 0.0000,  0.0000,  0.0000)
  16 Cu     2.894694    0.010263   20.463172    ( 0.0000,  0.0000,  0.0000)
  17 Cu     1.581944    1.854917   21.825972    ( 0.0000,  0.0000,  0.0000)
  18 Cu     4.211140    1.854586   21.832434    ( 0.0000,  0.0000,  0.0000)
  19 Cu     0.276553    0.006897   20.458294    ( 0.0000,  0.0000,  0.0000)
  20 Cu     0.283414   -0.021985   23.066287    ( 0.0000,  0.0000,  0.0000)
  21 Cu     4.248729    1.843557   24.412963    ( 0.0000,  0.0000,  0.0000)
  22 Cu     1.561808    1.843950   24.486594    ( 0.0000,  0.0000,  0.0000)
  23 Cu     2.892467    0.008039   23.057046    ( 0.0000,  0.0000,  0.0000)
  24 Cu     2.860310    3.707593    9.967329    ( 0.0000,  0.0000,  0.0000)
  25 Cu     1.598317    5.532075   11.326815    ( 0.0000,  0.0000,  0.0000)
  26 Cu     4.204269    5.542266   11.332294    ( 0.0000,  0.0000,  0.0000)
  27 Cu     0.333216    3.702564   10.105056    ( 0.0000,  0.0000,  0.0000)
  28 Cu     0.280940    3.697008   12.601910    ( 0.0000,  0.0000,  0.0000)
  29 Cu     4.203391    5.542023   13.928247    ( 0.0000,  0.0000,  0.0000)
  30 Cu     1.584498    5.553301   13.931449    ( 0.0000,  0.0000,  0.0000)
  31 Cu     2.886378    3.697615   12.559647    ( 0.0000,  0.0000,  0.0000)
  32 Cu     2.891477    3.700936   15.208536    ( 0.0000,  0.0000,  0.0000)
  33 Cu     1.587545    5.550482   16.549485    ( 0.0000,  0.0000,  0.0000)
  34 Cu     4.202887    5.549958   16.545037    ( 0.0000,  0.0000,  0.0000)
  35 Cu     0.278620    3.700976   15.221968    ( 0.0000,  0.0000,  0.0000)
  36 Cu     0.277519    3.701774   17.840626    ( 0.0000,  0.0000,  0.0000)
  37 Cu     4.201936    5.551777   19.166493    ( 0.0000,  0.0000,  0.0000)
  38 Cu     1.586380    5.550576   19.175268    ( 0.0000,  0.0000,  0.0000)
  39 Cu     2.895780    3.699621   17.842714    ( 0.0000,  0.0000,  0.0000)
  40 Cu     2.894850    3.692453   20.463852    ( 0.0000,  0.0000,  0.0000)
  41 Cu     1.579593    5.548976   21.799204    ( 0.0000,  0.0000,  0.0000)
  42 Cu     4.204811    5.548416   21.793143    ( 0.0000,  0.0000,  0.0000)
  43 Cu     0.277270    3.695698   20.458642    ( 0.0000,  0.0000,  0.0000)
  44 Cu     0.281166    3.720871   23.079571    ( 0.0000,  0.0000,  0.0000)
  45 Cu     4.193401    5.556623   24.439606    ( 0.0000,  0.0000,  0.0000)
  46 Cu     1.551836    5.555955   24.362912    ( 0.0000,  0.0000,  0.0000)
  47 Cu     2.893858    3.690864   23.069354    ( 0.0000,  0.0000,  0.0000)
  48 Cu     6.815596    1.827646   11.311852    ( 0.0000,  0.0000,  0.0000)
  49 Cu     5.564585   -0.005634   10.064796    ( 0.0000,  0.0000,  0.0000)
  50 Cu     5.518319    0.002838   12.592644    ( 0.0000,  0.0000,  0.0000)
  51 Cu     6.820546    1.856436   13.934667    ( 0.0000,  0.0000,  0.0000)
  52 Cu     6.820207    1.850317   16.551555    ( 0.0000,  0.0000,  0.0000)
  53 Cu     5.511174    0.001517   15.216612    ( 0.0000,  0.0000,  0.0000)
  54 Cu     5.510209    0.001470   17.842119    ( 0.0000,  0.0000,  0.0000)
  55 Cu     6.819040    1.851250   19.170356    ( 0.0000,  0.0000,  0.0000)
  56 Cu     6.816492    1.854035   21.796570    ( 0.0000,  0.0000,  0.0000)
  57 Cu     5.512931   -0.000802   20.460702    ( 0.0000,  0.0000,  0.0000)
  58 Cu     5.504193    0.022685   23.067469    ( 0.0000,  0.0000,  0.0000)
  59 Cu     6.772370    1.846318   24.322178    ( 0.0000,  0.0000,  0.0000)
  60 Cu     6.812580    5.569101   11.325792    ( 0.0000,  0.0000,  0.0000)
  61 Cu     5.563853    3.708417    9.900521    ( 0.0000,  0.0000,  0.0000)
  62 Cu     5.516588    3.696461   12.563914    ( 0.0000,  0.0000,  0.0000)
  63 Cu     6.821221    5.545707   13.934070    ( 0.0000,  0.0000,  0.0000)
  64 Cu     6.818919    5.552076   16.548972    ( 0.0000,  0.0000,  0.0000)
  65 Cu     5.513762    3.699860   15.218527    ( 0.0000,  0.0000,  0.0000)
  66 Cu     5.510686    3.700043   17.841477    ( 0.0000,  0.0000,  0.0000)
  67 Cu     6.821093    5.551704   19.170644    ( 0.0000,  0.0000,  0.0000)
  68 Cu     6.824820    5.547703   21.804362    ( 0.0000,  0.0000,  0.0000)
  69 Cu     5.511946    3.702957   20.460706    ( 0.0000,  0.0000,  0.0000)
  70 Cu     5.505254    3.675823   23.082516    ( 0.0000,  0.0000,  0.0000)
  71 Cu     6.821235    5.558299   24.405573    ( 0.0000,  0.0000,  0.0000)
  72 Cl     3.115472    1.789918   26.285493    ( 0.0000,  0.0000,  0.0000)
  73 Cl     4.032903    3.649134    8.112016    ( 0.0000,  0.0000,  0.0000)
  74 Cl     5.766412    5.598069   26.198558    ( 0.0000,  0.0000,  0.0000)
  75 Cl     1.335220   -0.143087    8.171981    ( 0.0000,  0.0000,  0.0000)
  76 Cl     4.542990   -0.037093    8.136557    ( 0.0000,  0.0000,  0.0000)
  77 Cl     2.548443    5.480614   26.222924    ( 0.0000,  0.0000,  0.0000)
  78 Cl     7.293835    3.752331    8.083712    ( 0.0000,  0.0000,  0.0000)
  79 Cl    -0.104243    1.793200   26.281230    ( 0.0000,  0.0000,  0.0000)

Unit cell:
           periodic     x           y           z      points  spacing
  1. axis:    yes    7.851007    0.000000    0.000000    45     0.1745
  2. axis:    yes    0.000000    7.402000    0.000000    42     0.1762
  3. axis:    yes    0.000000    0.000000   34.393512   196     0.1755

  Lengths:   7.851007   7.402000  34.393512
  Angles:   90.000000  90.000000  90.000000

Effective grid spacing dv^(1/3) = 0.1754

     iter     time        total  log10-change:
                         energy  eigst   dens
iter:   1 17:15:34 -5756.363301  -1.65
iter:   2 17:16:56 -5798.284109  -1.25  -1.82
iter:   3 17:18:29 -5788.771243  -1.26  -1.50
iter:   4 17:19:54 -5750.726866  -1.86  -1.53
iter:   5 17:21:21 -5749.381708  -2.96  -2.23
iter:   6 17:22:43 -5748.941348  -3.82  -2.44
iter:   7 17:24:04 -5748.950899  -3.63  -2.60
iter:   8 17:25:26 -5748.783684c -3.56  -2.63
iter:   9 17:26:52 -5748.768405c -3.98  -2.97
iter:  10 17:28:14 -5748.751930c -4.77  -3.04
iter:  11 17:29:35 -5748.748347c -4.52  -3.17
iter:  12 17:30:56 -5748.746599c -4.92  -3.24
iter:  13 17:32:23 -5748.747820c -5.16  -3.41
iter:  14 17:34:11 -5748.744345c -5.03  -3.38
iter:  15 17:35:33 -5748.743326c -5.57  -3.61
iter:  16 17:36:58 -5748.743526c -5.59  -3.72
iter:  17 17:38:19 -5748.742854c -5.77  -3.72
iter:  18 17:39:41 -5748.742228c -5.72  -3.90
iter:  19 17:41:01 -5748.742403c -6.56  -4.07c
iter:  20 17:42:27 -5748.742456c -6.26  -4.17c
iter:  21 17:43:52 -5748.742384c -7.08  -4.28c
iter:  22 17:45:15 -5748.742407c -6.95  -4.42c
iter:  23 17:46:44 -5748.742324c -6.68  -4.39c
iter:  24 17:48:12 -5748.742348c -7.13  -4.60c
iter:  25 17:49:45 -5748.742260c -7.65c -4.73c

Converged after 25 iterations.

Dipole moment: (-53.973076, 13.029413, 0.077999) |e|*Ang

Energy contributions relative to reference atoms: (reference = -3341984.127726)

Kinetic:       +564.752447
Potential:     -622.473772
External:        +0.000000
XC:            -5689.882723
Entropy (-ST):   -0.701948
Local:           -0.787238
--------------------------
Free energy:   -5749.093234
Extrapolated:  -5748.742260

Showing only first 2 kpts
 Kpt  Band  Eigenvalues  Occupancy
  0   422      0.33514    0.88577
  0   423      0.34301    0.84709
  0   424      0.46698    0.35079
  0   425      0.47456    0.32938

  1   422     -0.10019    1.96815
  1   423      0.02513    1.89275
  1   424      0.07299    1.83243
  1   425      0.09920    1.78755


Fermi level: 0.31219

No gap

Forces in eV/Ang:
  0 Cu    0.11329    0.00013   -0.38676
  1 Cu    0.04926   -0.13883    0.07514
  2 Cu    0.01106    0.00848   -0.04053
  3 Cu   -0.26167    0.05715    0.48130
  4 Cu    0.02805   -0.00419    0.00752
  5 Cu    0.00184   -0.01986   -0.00831
  6 Cu   -0.00611   -0.03195    0.01549
  7 Cu    0.01271   -0.00336   -0.10751
  8 Cu    0.00244    0.00131   -0.01871
  9 Cu   -0.00170    0.00074    0.00028
 10 Cu   -0.00124   -0.00051   -0.00143
 11 Cu   -0.00504   -0.00309   -0.03425
 12 Cu    0.00120   -0.00684   -0.01359
 13 Cu   -0.00079    0.00141    0.01411
 14 Cu    0.00565   -0.00045   -0.00777
 15 Cu    0.00034   -0.00097    0.00332
 16 Cu   -0.00129   -0.01974    0.00516
 17 Cu   -0.02778   -0.00679    0.04318
 18 Cu   -0.01625   -0.00576   -0.10367
 19 Cu   -0.00617    0.00322   -0.01918
 20 Cu   -0.01662    0.05236   -0.02546
 21 Cu   -0.08314    0.00950   -0.10911
 22 Cu   -0.04283   -0.00689    0.32757
 23 Cu   -0.00036   -0.01866    0.04911
 24 Cu    0.07485   -0.00817    0.09927
 25 Cu    0.04416    0.13773    0.05634
 26 Cu    0.00991   -0.00709   -0.05445
 27 Cu   -0.18511   -0.00484   -0.34173
 28 Cu   -0.02784    0.00070    0.08800
 29 Cu    0.00074    0.02024   -0.00672
 30 Cu   -0.00472    0.03324    0.01777
 31 Cu    0.01292   -0.00086    0.07972
 32 Cu    0.00132   -0.00074   -0.01340
 33 Cu    0.00173   -0.00164    0.00906
 34 Cu   -0.00029    0.00071   -0.00423
 35 Cu    0.00380    0.00343   -0.01361
 36 Cu   -0.00303    0.00636    0.00101
 37 Cu   -0.00195   -0.00098    0.00474
 38 Cu   -0.00249    0.00035    0.04199
 39 Cu    0.00151    0.00033    0.00020
 40 Cu   -0.00333    0.02009    0.00347
 41 Cu    0.02912    0.00156   -0.01635
 42 Cu   -0.00421    0.00237    0.14475
 43 Cu   -0.00738   -0.00274   -0.01217
 44 Cu   -0.01272   -0.04973   -0.04101
 45 Cu   -0.12646   -0.00817    0.21622
 46 Cu   -0.40002    0.02813   -0.68053
 47 Cu   -0.00279    0.02054    0.02985
 48 Cu    0.03102    0.10458    0.08379
 49 Cu   -0.05791    0.00420   -0.08238
 50 Cu   -0.03615   -0.00333    0.09181
 51 Cu    0.00410   -0.00017    0.01609
 52 Cu    0.00340   -0.00623    0.00111
 53 Cu    0.00189    0.00007   -0.04170
 54 Cu   -0.00111    0.00141   -0.00784
 55 Cu   -0.00395   -0.00240    0.02168
 56 Cu    0.03491   -0.00678   -0.05694
 57 Cu    0.00920   -0.02547   -0.01191
 58 Cu   -0.03483   -0.16048   -0.06484
 59 Cu    0.10904    0.00758    0.06235
 60 Cu    0.03573   -0.10560    0.06911
 61 Cu    0.07368   -0.00248   -0.37172
 62 Cu    0.02191    0.00025   -0.04066
 63 Cu    0.00341    0.00070    0.02163
 64 Cu   -0.00081    0.00671    0.01464
 65 Cu   -0.00488    0.00135    0.00394
 66 Cu    0.00201   -0.00081    0.00030
 67 Cu    0.00574    0.00357    0.03265
 68 Cu   -0.02798    0.00240    0.04907
 69 Cu    0.01206    0.02518   -0.01171
 70 Cu   -0.03666    0.16213   -0.08234
 71 Cu    0.73566   -0.03692   -1.19155
 72 Cl    0.36466   -0.00275   -0.07585
 73 Cl   -0.33866   -0.00483    0.10993
 74 Cl   -0.22186    0.01968    1.14139
 75 Cl   -0.08141   -0.00379   -0.41197
 76 Cl    0.28906    0.01008    0.13195
 77 Cl    0.01260   -0.03392    0.60358
 78 Cl    0.20007   -0.03345    0.37721
 79 Cl   -0.23769    0.02224   -0.11553

System changes: positions 

Initializing position-dependent things.

Density initialized from wave functions
      .------------------.  
     /|                  |  
    / |                  |  
   /  |                  |  
  /   |                  |  
 *    |                  |  
 |    |                  |  
 |    |                  |  
 |    |                  |  
 |    |                  |  
 |    |                  |  
 |    |    Cl      Cl    |  
 |    |                  |  
 |    |        Cu        |  
 |    |CCuCl         Cl  |  
 |    |                  |  
 |  CuCu  Cu Cu  CuCu    |  
 |    |  Cu    Cu  CuCu  |  
 |    |                  |  
 |    CuCu  CuCu   Cu    |  
 |  Cu|CuCuCu  CuCu  Cu  |  
 |    |                  |  
 |Cu  CuCu  Cu     Cu    |  
 |  Cu|CuCuCu  CuCu  Cu  |  
 |    |                  |  
 |    | Cu    Cu         |  
 |  CuCu CCuCu CuCuCuCu  |  
 |    |                  |  
 |    | Cu    Cu         |  
 |  CuCu CCuCu CuCuCuCu  |  
 |    |      Cu     Cu   |  
 |    |                  |  
 |CuCuCuCuCuCuCu CuCu    |  
 |    |                  |  
 |    |                  |  
 |Cu  |      Cl      Cl  |  
 |    |                  |  
 |    |                  |  
 |    |                  |  
 |    |                  |  
 |    |                  |  
 |    |                  |  
 |    .------------------.  
 |   /                  /   
 |  /                  /    
 | /                  /     
 |/                  /      
 *------------------*       

Positions:
   0 Cu     2.922412   -0.007092    9.877521    ( 0.0000,  0.0000,  0.0000)
   1 Cu     1.603090    1.853293   11.332527    ( 0.0000,  0.0000,  0.0000)
   2 Cu     4.204685    1.859852   11.322620    ( 0.0000,  0.0000,  0.0000)
   3 Cu     0.217029    0.000591   10.053419    ( 0.0000,  0.0000,  0.0000)
   4 Cu     0.274007    0.002308   12.573710    ( 0.0000,  0.0000,  0.0000)
   5 Cu     4.203394    1.857603   13.928172    ( 0.0000,  0.0000,  0.0000)
   6 Cu     1.584738    1.844679   13.936593    ( 0.0000,  0.0000,  0.0000)
   7 Cu     2.896098    0.003052   12.570315    ( 0.0000,  0.0000,  0.0000)
   8 Cu     2.896477    0.000387   15.223198    ( 0.0000,  0.0000,  0.0000)
   9 Cu     1.586349    1.852239   16.551593    ( 0.0000,  0.0000,  0.0000)
  10 Cu     4.202044    1.852042   16.549991    ( 0.0000,  0.0000,  0.0000)
  11 Cu     0.275715   -0.000153   15.213264    ( 0.0000,  0.0000,  0.0000)
  12 Cu     0.279085   -0.001149   17.838621    ( 0.0000,  0.0000,  0.0000)
  13 Cu     4.206585    1.851458   19.188996    ( 0.0000,  0.0000,  0.0000)
  14 Cu     1.584528    1.852049   19.173567    ( 0.0000,  0.0000,  0.0000)
  15 Cu     2.894943    0.001749   17.846618    ( 0.0000,  0.0000,  0.0000)
  16 Cu     2.894687    0.007242   20.462280    ( 0.0000,  0.0000,  0.0000)
  17 Cu     1.577987    1.853949   21.831614    ( 0.0000,  0.0000,  0.0000)
  18 Cu     4.211321    1.853724   21.825417    ( 0.0000,  0.0000,  0.0000)
  19 Cu     0.275537    0.008499   20.452717    ( 0.0000,  0.0000,  0.0000)
  20 Cu     0.281819   -0.027006   23.050941    ( 0.0000,  0.0000,  0.0000)
  21 Cu     4.254778    1.845397   24.383010    ( 0.0000,  0.0000,  0.0000)
  22 Cu     1.559032    1.843146   24.540867    ( 0.0000,  0.0000,  0.0000)
  23 Cu     2.891261    0.009927   23.055917    ( 0.0000,  0.0000,  0.0000)
  24 Cu     2.858497    3.706070    9.990370    ( 0.0000,  0.0000,  0.0000)
  25 Cu     1.605163    5.543943   11.346004    ( 0.0000,  0.0000,  0.0000)
  26 Cu     4.205988    5.537953   11.332647    ( 0.0000,  0.0000,  0.0000)
  27 Cu     0.336693    3.700132   10.086317    ( 0.0000,  0.0000,  0.0000)
  28 Cu     0.278773    3.697378   12.601649    ( 0.0000,  0.0000,  0.0000)
  29 Cu     4.203456    5.545027   13.928845    ( 0.0000,  0.0000,  0.0000)
  30 Cu     1.583585    5.558205   13.936508    ( 0.0000,  0.0000,  0.0000)
  31 Cu     2.886042    3.697823   12.564131    ( 0.0000,  0.0000,  0.0000)
  32 Cu     2.891206    3.700704   15.203553    ( 0.0000,  0.0000,  0.0000)
  33 Cu     1.587926    5.549947   16.552092    ( 0.0000,  0.0000,  0.0000)
  34 Cu     4.202785    5.550085   16.545132    ( 0.0000,  0.0000,  0.0000)
  35 Cu     0.279298    3.701715   15.218285    ( 0.0000,  0.0000,  0.0000)
  36 Cu     0.276969    3.702809   17.839528    ( 0.0000,  0.0000,  0.0000)
  37 Cu     4.201662    5.551516   19.168060    ( 0.0000,  0.0000,  0.0000)
  38 Cu     1.585780    5.550657   19.183905    ( 0.0000,  0.0000,  0.0000)
  39 Cu     2.895906    3.699653   17.841816    ( 0.0000,  0.0000,  0.0000)
  40 Cu     2.894421    3.695581   20.462978    ( 0.0000,  0.0000,  0.0000)
  41 Cu     1.581921    5.549526   21.811418    ( 0.0000,  0.0000,  0.0000)
  42 Cu     4.203291    5.548771   21.816910    ( 0.0000,  0.0000,  0.0000)
  43 Cu     0.276296    3.694238   20.454409    ( 0.0000,  0.0000,  0.0000)
  44 Cu     0.279121    3.725532   23.061470    ( 0.0000,  0.0000,  0.0000)
  45 Cu     4.178436    5.555502   24.508082    ( 0.0000,  0.0000,  0.0000)
  46 Cu     1.492781    5.559122   24.298816    ( 0.0000,  0.0000,  0.0000)
  47 Cu     2.892925    3.688843   23.063933    ( 0.0000,  0.0000,  0.0000)
  48 Cu     6.818911    1.828003   11.333182    ( 0.0000,  0.0000,  0.0000)
  49 Cu     5.586919   -0.004249   10.070538    ( 0.0000,  0.0000,  0.0000)
  50 Cu     5.515030    0.002182   12.588106    ( 0.0000,  0.0000,  0.0000)
  51 Cu     6.821174    1.857639   13.939644    ( 0.0000,  0.0000,  0.0000)
  52 Cu     6.820872    1.849342   16.552785    ( 0.0000,  0.0000,  0.0000)
  53 Cu     5.511599    0.001532   15.208050    ( 0.0000,  0.0000,  0.0000)
  54 Cu     5.509917    0.001972   17.839531    ( 0.0000,  0.0000,  0.0000)
  55 Cu     6.818351    1.850668   19.174875    ( 0.0000,  0.0000,  0.0000)
  56 Cu     6.819132    1.852818   21.802884    ( 0.0000,  0.0000,  0.0000)
  57 Cu     5.514219   -0.004807   20.456325    ( 0.0000,  0.0000,  0.0000)
  58 Cu     5.500211    0.010672   23.048261    ( 0.0000,  0.0000,  0.0000)
  59 Cu     6.760721    1.848459   24.320271    ( 0.0000,  0.0000,  0.0000)
  60 Cu     6.815785    5.567724   11.345301    ( 0.0000,  0.0000,  0.0000)
  61 Cu     5.581191    3.708293    9.844432    ( 0.0000,  0.0000,  0.0000)
  62 Cu     5.520110    3.696532   12.556916    ( 0.0000,  0.0000,  0.0000)
  63 Cu     6.821993    5.544747   13.940052    ( 0.0000,  0.0000,  0.0000)
  64 Cu     6.818718    5.553115   16.552916    ( 0.0000,  0.0000,  0.0000)
  65 Cu     5.513402    3.700106   15.218235    ( 0.0000,  0.0000,  0.0000)
  66 Cu     5.511178    3.699721   17.840113    ( 0.0000,  0.0000,  0.0000)
  67 Cu     6.822126    5.552449   19.178924    ( 0.0000,  0.0000,  0.0000)
  68 Cu     6.823707    5.548236   21.823205    ( 0.0000,  0.0000,  0.0000)
  69 Cu     5.513577    3.707027   20.456325    ( 0.0000,  0.0000,  0.0000)
  70 Cu     5.501541    3.687359   23.060305    ( 0.0000,  0.0000,  0.0000)
  71 Cu     6.899588    5.554049   24.311394    ( 0.0000,  0.0000,  0.0000)
  72 Cl     3.206715    1.789254   26.283320    ( 0.0000,  0.0000,  0.0000)
  73 Cl     3.949914    3.647055    8.117738    ( 0.0000,  0.0000,  0.0000)
  74 Cl     5.834377    5.601313   26.278986    ( 0.0000,  0.0000,  0.0000)
  75 Cl     1.258011   -0.142306    8.144721    ( 0.0000,  0.0000,  0.0000)
  76 Cl     4.625130   -0.034065    8.145491    ( 0.0000,  0.0000,  0.0000)
  77 Cl     2.474672    5.475067   26.266066    ( 0.0000,  0.0000,  0.0000)
  78 Cl     7.333367    3.748435    8.108120    ( 0.0000,  0.0000,  0.0000)
  79 Cl    -0.171832    1.796285   26.275819    ( 0.0000,  0.0000,  0.0000)

Unit cell:
           periodic     x           y           z      points  spacing
  1. axis:    yes    7.851007    0.000000    0.000000    45     0.1745
  2. axis:    yes    0.000000    7.402000    0.000000    42     0.1762
  3. axis:    yes    0.000000    0.000000   34.393512   196     0.1755

  Lengths:   7.851007   7.402000  34.393512
  Angles:   90.000000  90.000000  90.000000

Effective grid spacing dv^(1/3) = 0.1754

     iter     time        total  log10-change:
                         energy  eigst   dens
iter:   1 17:51:56 -5750.628422  -1.72
iter:   2 17:53:24 -5751.735560  -2.59  -2.34
iter:   3 17:54:52 -5750.402413  -2.71  -2.11
iter:   4 17:56:14 -5749.259553  -3.09  -2.28
iter:   5 17:57:36 -5749.187441  -3.20  -2.62
iter:   6 17:59:04 -5749.017289c -3.64  -2.70
iter:   7 18:00:28 -5749.002572c -4.05  -2.97
iter:   8 18:02:15 -5749.004160c -4.47  -3.02
iter:   9 18:03:38 -5749.030502c -4.14  -3.06
iter:  10 18:05:00 -5748.984744c -4.81  -3.00
iter:  11 18:06:27 -5748.982435c -4.88  -3.48
iter:  12 18:07:58 -5748.980095c -5.22  -3.47
iter:  13 18:09:20 -5748.980403c -5.25  -3.71
iter:  14 18:10:50 -5748.979902c -6.04  -3.76
iter:  15 18:12:12 -5748.979661c -5.80  -3.78
iter:  16 18:13:40 -5748.979196c -6.11  -3.99
iter:  17 18:15:02 -5748.979047c -6.02  -4.24c
iter:  18 18:16:22 -5748.979260c -6.39  -4.19c
iter:  19 18:17:43 -5748.979085c -6.41  -4.09c
iter:  20 18:19:12 -5748.979061c -6.76  -4.35c
iter:  21 18:20:35 -5748.978977c -7.50c -4.66c

Converged after 21 iterations.

Dipole moment: (-48.309481, 13.107785, -0.057410) |e|*Ang

Energy contributions relative to reference atoms: (reference = -3341984.127726)

Kinetic:       +561.346944
Potential:     -619.876557
External:        +0.000000
XC:            -5689.310293
Entropy (-ST):   -0.700382
Local:           -0.788880
--------------------------
Free energy:   -5749.329168
Extrapolated:  -5748.978977

Showing only first 2 kpts
 Kpt  Band  Eigenvalues  Occupancy
  0   422      0.30532    0.90470
  0   423      0.31675    0.84845
  0   424      0.44280    0.34558
  0   425      0.45085    0.32317

  1   422     -0.12492    1.96775
  1   423      0.00832    1.88304
  1   424      0.03809    1.84562
  1   425      0.07143    1.79090


Fermi level: 0.28620

No gap

Forces in eV/Ang:
  0 Cu   -0.04640   -0.00742   -0.28422
  1 Cu    0.02501   -0.07678   -0.05043
  2 Cu    0.02972   -0.01064   -0.09789
  3 Cu    0.22382    0.01529    0.03886
  4 Cu    0.01389   -0.00543    0.19790
  5 Cu   -0.00147   -0.01074   -0.02598
  6 Cu    0.00270   -0.02597    0.00244
  7 Cu    0.03353   -0.00507   -0.05083
  8 Cu    0.00353    0.00136   -0.01840
  9 Cu   -0.00038   -0.00183   -0.00873
 10 Cu   -0.00111   -0.00187   -0.00956
 11 Cu   -0.00544   -0.00042    0.00736
 12 Cu    0.00083   -0.00448    0.00371
 13 Cu   -0.00316    0.00082   -0.01878
 14 Cu    0.00710    0.00023   -0.00669
 15 Cu   -0.00071   -0.00234    0.00583
 16 Cu   -0.00193   -0.01745    0.02062
 17 Cu   -0.00017   -0.00607    0.04958
 18 Cu   -0.01483   -0.00571   -0.13147
 19 Cu    0.00291   -0.00455   -0.00233
 20 Cu    0.00662    0.33584   -0.05143
 21 Cu   -0.09090    0.01192   -0.18018
 22 Cu   -0.02439   -0.00686    0.27195
 23 Cu    0.00368   -0.01572    0.11115
 24 Cu    0.00683   -0.00058    0.27478
 25 Cu    0.01440    0.08343   -0.07185
 26 Cu    0.02757    0.01307   -0.10599
 27 Cu    0.01559   -0.01275    0.21999
 28 Cu    0.01808    0.00136    0.05870
 29 Cu   -0.00130    0.01016   -0.02640
 30 Cu    0.00605    0.02515    0.00167
 31 Cu    0.01129    0.00047    0.10537
 32 Cu    0.00408   -0.00043    0.01254
 33 Cu    0.00149    0.00218    0.00106
 34 Cu    0.00051    0.00234   -0.00729
 35 Cu    0.00524    0.00109    0.01817
 36 Cu   -0.00186    0.00412    0.00978
 37 Cu   -0.00173   -0.00009    0.01581
 38 Cu   -0.00190    0.00047    0.00426
 39 Cu    0.00027    0.00188    0.00746
 40 Cu   -0.00274    0.01611    0.01700
 41 Cu    0.04146    0.00129   -0.25418
 42 Cu   -0.02221    0.00252    0.08463
 43 Cu    0.00021    0.00333   -0.00014
 44 Cu    0.02496   -0.32521   -0.05521
 45 Cu    0.04951   -0.00760    0.40344
 46 Cu    0.50341   -0.01556    0.33682
 47 Cu   -0.00508    0.02280    0.10838
 48 Cu   -0.00595    0.20656    0.02500
 49 Cu   -0.12911    0.00490    0.17599
 50 Cu   -0.02234   -0.00433    0.13652
 51 Cu   -0.00170   -0.00392    0.00382
 52 Cu    0.00169   -0.00427   -0.00512
 53 Cu    0.00113    0.00041    0.00642
 54 Cu    0.00047   -0.00106    0.00102
 55 Cu   -0.00320   -0.00069   -0.00812
 56 Cu    0.00116   -0.00558   -0.10683
 57 Cu    0.00029   -0.02657   -0.00487
 58 Cu   -0.04383   -0.13033    0.05728
 59 Cu    0.09337    0.00970   -0.16077
 60 Cu    0.00798   -0.19109    0.00285
 61 Cu   -0.03125   -0.00479   -0.22858
 62 Cu   -0.01178    0.00169   -0.03226
 63 Cu   -0.00555    0.00311    0.00476
 64 Cu   -0.00153    0.00474   -0.00028
 65 Cu   -0.00894    0.00005    0.00205
 66 Cu    0.00226    0.00075    0.00998
 67 Cu    0.00542    0.00157    0.00052
 68 Cu   -0.03197    0.00187   -0.29836
 69 Cu    0.00334    0.02557   -0.00569
 70 Cu   -0.05002    0.13288    0.03791
 71 Cu   -0.60903   -0.00059    0.48659
 72 Cl    0.04624   -0.00789    0.00917
 73 Cl   -0.04531   -0.00278   -0.09406
 74 Cl    0.16228   -0.02206   -0.47236
 75 Cl    0.01592    0.03430   -0.01644
 76 Cl   -0.03037   -0.00298   -0.18741
 77 Cl   -0.12942    0.00645   -0.27965
 78 Cl   -0.11378   -0.03177   -0.13728
 79 Cl    0.09293    0.02150    0.06998

System changes: positions 

Initializing position-dependent things.

Density initialized from wave functions
      .------------------.  
     /|                  |  
    / |                  |  
   /  |                  |  
  /   |                  |  
 *    |                  |  
 |    |                  |  
 |    |                  |  
 |    |                  |  
 |    |                  |  
 |    |                  |  
 |    |    Cl      Cl    |  
 |    |                  |  
 |    |        Cu        |  
 |    | CuCl       CuCl  |  
 |    |                  |  
 |  CuCu  Cu Cu  CuCu    |  
 |    |  Cu    Cu  CuCu  |  
 |    |                  |  
 |Cu  CuCu  Cu     Cu    |  
 |  Cu|CuCuCu  CuCu  Cu  |  
 |    |                  |  
 |Cu  CuCu  Cu     Cu    |  
 |  Cu|CuCuCu  CuCu  Cu  |  
 |    |                  |  
 |    | Cu    Cu         |  
 |  CuCu CCuCu CuCuCuCu  |  
 |    |                  |  
 |    | Cu    Cu         |  
 |  CuCu CCuCu CuCuCuCu  |  
 |    |      Cu    Cu    |  
 |    |                  |  
 |CuCuCuCuCuCuCu ClCu    |  
 |    |          Cu      |  
 |    |                  |  
 |Cu  |      Cl      Cl  |  
 |    |                  |  
 |    |                  |  
 |    |                  |  
 |    |                  |  
 |    |                  |  
 |    |                  |  
 |    .------------------.  
 |   /                  /   
 |  /                  /    
 | /                  /     
 |/                  /      
 *------------------*       

Positions:
   0 Cu     2.922925   -0.007632    9.835649    ( 0.0000,  0.0000,  0.0000)
   1 Cu     1.607099    1.842424   11.332819    ( 0.0000,  0.0000,  0.0000)
   2 Cu     4.207617    1.859684   11.314033    ( 0.0000,  0.0000,  0.0000)
   3 Cu     0.225048    0.004021   10.071342    ( 0.0000,  0.0000,  0.0000)
   4 Cu     0.275895    0.001684   12.588532    ( 0.0000,  0.0000,  0.0000)
   5 Cu     4.203356    1.855918   13.925868    ( 0.0000,  0.0000,  0.0000)
   6 Cu     1.584707    1.841240   13.937775    ( 0.0000,  0.0000,  0.0000)
   7 Cu     2.899524    0.002505   12.560696    ( 0.0000,  0.0000,  0.0000)
   8 Cu     2.896881    0.000562   15.220886    ( 0.0000,  0.0000,  0.0000)
   9 Cu     1.586208    1.852141   16.551045    ( 0.0000,  0.0000,  0.0000)
  10 Cu     4.201922    1.851864   16.549268    ( 0.0000,  0.0000,  0.0000)
  11 Cu     0.275034   -0.000349   15.212046    ( 0.0000,  0.0000,  0.0000)
  12 Cu     0.279218   -0.001812   17.838104    ( 0.0000,  0.0000,  0.0000)
  13 Cu     4.206352    1.851595   19.188417    ( 0.0000,  0.0000,  0.0000)
  14 Cu     1.585301    1.852038   19.172836    ( 0.0000,  0.0000,  0.0000)
  15 Cu     2.894907    0.001511   17.847128    ( 0.0000,  0.0000,  0.0000)
  16 Cu     2.894500    0.004974   20.463978    ( 0.0000,  0.0000,  0.0000)
  17 Cu     1.576881    1.853173   21.837399    ( 0.0000,  0.0000,  0.0000)
  18 Cu     4.209793    1.853013   21.811418    ( 0.0000,  0.0000,  0.0000)
  19 Cu     0.275519    0.008407   20.451363    ( 0.0000,  0.0000,  0.0000)
  20 Cu     0.281830    0.001434   23.043959    ( 0.0000,  0.0000,  0.0000)
  21 Cu     4.246389    1.846838   24.361623    ( 0.0000,  0.0000,  0.0000)
  22 Cu     1.555777    1.842326   24.577628    ( 0.0000,  0.0000,  0.0000)
  23 Cu     2.891392    0.008527   23.066006    ( 0.0000,  0.0000,  0.0000)
  24 Cu     2.860276    3.705648   10.018523    ( 0.0000,  0.0000,  0.0000)
  25 Cu     1.608185    5.555250   11.343790    ( 0.0000,  0.0000,  0.0000)
  26 Cu     4.208733    5.538294   11.322778    ( 0.0000,  0.0000,  0.0000)
  27 Cu     0.334936    3.698626   10.095509    ( 0.0000,  0.0000,  0.0000)
  28 Cu     0.279451    3.697559   12.608215    ( 0.0000,  0.0000,  0.0000)
  29 Cu     4.203371    5.546692   13.926590    ( 0.0000,  0.0000,  0.0000)
  30 Cu     1.583874    5.561644   13.937707    ( 0.0000,  0.0000,  0.0000)
  31 Cu     2.887187    3.697876   12.575123    ( 0.0000,  0.0000,  0.0000)
  32 Cu     2.891534    3.700621   15.203639    ( 0.0000,  0.0000,  0.0000)
  33 Cu     1.588138    5.550022   16.552725    ( 0.0000,  0.0000,  0.0000)
  34 Cu     4.202808    5.550313   16.544454    ( 0.0000,  0.0000,  0.0000)
  35 Cu     0.279906    3.701977   15.219026    ( 0.0000,  0.0000,  0.0000)
  36 Cu     0.276677    3.703422   17.840211    ( 0.0000,  0.0000,  0.0000)
  37 Cu     4.201442    5.551453   19.169699    ( 0.0000,  0.0000,  0.0000)
  38 Cu     1.585488    5.550714   19.186291    ( 0.0000,  0.0000,  0.0000)
  39 Cu     2.895976    3.699821   17.842317    ( 0.0000,  0.0000,  0.0000)
  40 Cu     2.894067    3.697759   20.464344    ( 0.0000,  0.0000,  0.0000)
  41 Cu     1.586284    5.549742   21.791528    ( 0.0000,  0.0000,  0.0000)
  42 Cu     4.201132    5.549078   21.830148    ( 0.0000,  0.0000,  0.0000)
  43 Cu     0.276035    3.694257   20.453563    ( 0.0000,  0.0000,  0.0000)
  44 Cu     0.280680    3.697983   23.053483    ( 0.0000,  0.0000,  0.0000)
  45 Cu     4.178037    5.554549   24.555733    ( 0.0000,  0.0000,  0.0000)
  46 Cu     1.518973    5.558804   24.304987    ( 0.0000,  0.0000,  0.0000)
  47 Cu     2.892313    3.690854   23.072813    ( 0.0000,  0.0000,  0.0000)
  48 Cu     6.819475    1.847369   11.339916    ( 0.0000,  0.0000,  0.0000)
  49 Cu     5.578114   -0.003562   10.084445    ( 0.0000,  0.0000,  0.0000)
  50 Cu     5.512000    0.001662   12.600666    ( 0.0000,  0.0000,  0.0000)
  51 Cu     6.821198    1.857478   13.940980    ( 0.0000,  0.0000,  0.0000)
  52 Cu     6.821173    1.848727   16.552552    ( 0.0000,  0.0000,  0.0000)
  53 Cu     5.511791    0.001570   15.206575    ( 0.0000,  0.0000,  0.0000)
  54 Cu     5.509894    0.001981   17.839098    ( 0.0000,  0.0000,  0.0000)
  55 Cu     6.817910    1.850482   19.175250    ( 0.0000,  0.0000,  0.0000)
  56 Cu     6.820271    1.852048   21.793734    ( 0.0000,  0.0000,  0.0000)
  57 Cu     5.514601   -0.008088   20.455067    ( 0.0000,  0.0000,  0.0000)
  58 Cu     5.495305   -0.005025   23.049088    ( 0.0000,  0.0000,  0.0000)
  59 Cu     6.769009    1.849718   24.307782    ( 0.0000,  0.0000,  0.0000)
  60 Cu     6.817591    5.549490   11.349639    ( 0.0000,  0.0000,  0.0000)
  61 Cu     5.582432    3.707827    9.810186    ( 0.0000,  0.0000,  0.0000)
  62 Cu     5.520041    3.696689   12.552442    ( 0.0000,  0.0000,  0.0000)
  63 Cu     6.821702    5.544885   13.941714    ( 0.0000,  0.0000,  0.0000)
  64 Cu     6.818546    5.553787   16.553734    ( 0.0000,  0.0000,  0.0000)
  65 Cu     5.512509    3.700171   15.218440    ( 0.0000,  0.0000,  0.0000)
  66 Cu     5.511476    3.699723   17.840761    ( 0.0000,  0.0000,  0.0000)
  67 Cu     6.822837    5.552754   19.180768    ( 0.0000,  0.0000,  0.0000)
  68 Cu     6.820334    5.548515   21.801805    ( 0.0000,  0.0000,  0.0000)
  69 Cu     5.514318    3.710228   20.455001    ( 0.0000,  0.0000,  0.0000)
  70 Cu     5.496120    3.703233   23.058747    ( 0.0000,  0.0000,  0.0000)
  71 Cu     6.873721    5.552691   24.316042    ( 0.0000,  0.0000,  0.0000)
  72 Cl     3.230600    1.788447   26.282285    ( 0.0000,  0.0000,  0.0000)
  73 Cl     3.927822    3.646435    8.112819    ( 0.0000,  0.0000,  0.0000)
  74 Cl     5.853520    5.600307   26.272649    ( 0.0000,  0.0000,  0.0000)
  75 Cl     1.246744   -0.139393    8.131643    ( 0.0000,  0.0000,  0.0000)
  76 Cl     4.639871   -0.033688    8.133654    ( 0.0000,  0.0000,  0.0000)
  77 Cl     2.453446    5.474167   26.260263    ( 0.0000,  0.0000,  0.0000)
  78 Cl     7.333304    3.744579    8.107340    ( 0.0000,  0.0000,  0.0000)
  79 Cl    -0.178263    1.798951   26.278654    ( 0.0000,  0.0000,  0.0000)

Unit cell:
           periodic     x           y           z      points  spacing
  1. axis:    yes    7.851007    0.000000    0.000000    45     0.1745
  2. axis:    yes    0.000000    7.402000    0.000000    42     0.1762
  3. axis:    yes    0.000000    0.000000   34.393512   196     0.1755

  Lengths:   7.851007   7.402000  34.393512
  Angles:   90.000000  90.000000  90.000000

Effective grid spacing dv^(1/3) = 0.1754

     iter     time        total  log10-change:
                         energy  eigst   dens
iter:   1 18:22:43 -5749.624436  -2.43
iter:   2 18:24:22 -5749.592818  -3.02  -2.48
iter:   3 18:25:54 -5749.391991c -3.43  -2.50
iter:   4 18:27:25 -5749.153319  -4.32  -2.61
iter:   5 18:28:50 -5749.124006c -3.79  -2.93
iter:   6 18:30:12 -5749.116926c -4.44  -3.14
iter:   7 18:31:32 -5749.110929c -4.66  -3.31
iter:   8 18:32:55 -5749.110805c -4.97  -3.51
iter:   9 18:34:21 -5749.110860c -5.51  -3.71
iter:  10 18:35:45 -5749.109860c -5.76  -3.66
iter:  11 18:37:13 -5749.109193c -5.34  -3.73
iter:  12 18:38:40 -5749.108919c -6.41  -3.98
iter:  13 18:40:03 -5749.108971c -6.17  -4.14c
iter:  14 18:41:25 -5749.108746c -6.54  -4.24c
iter:  15 18:42:47 -5749.108882c -6.33  -4.29c
iter:  16 18:44:08 -5749.108776c -6.72  -4.13c
iter:  17 18:45:28 -5749.108670c -6.76  -4.32c
iter:  18 18:47:14 -5749.108678c -6.94  -4.55c
iter:  19 18:48:58 -5749.108663c -7.83c -4.73c

Converged after 19 iterations.

Dipole moment: (-48.333904, 12.724776, -0.009955) |e|*Ang

Energy contributions relative to reference atoms: (reference = -3341984.127726)

Kinetic:       +560.726725
Potential:     -619.444705
External:        +0.000000
XC:            -5689.246722
Entropy (-ST):   -0.703338
Local:           -0.792294
--------------------------
Free energy:   -5749.460332
Extrapolated:  -5749.108663

Showing only first 2 kpts
 Kpt  Band  Eigenvalues  Occupancy
  0   422      0.31812    0.90785
  0   423      0.33288    0.83533
  0   424      0.45126    0.36004
  0   425      0.46161    0.33050

  1   422     -0.10463    1.96551
  1   423      0.02424    1.88028
  1   424      0.05027    1.84740
  1   425      0.08232    1.79562


Fermi level: 0.29964

No gap

Forces in eV/Ang:
  0 Cu   -0.04274   -0.00637   -0.21115
  1 Cu    0.01609   -0.03295   -0.03775
  2 Cu    0.02288   -0.01378   -0.07061
  3 Cu    0.21319    0.00012   -0.08069
  4 Cu   -0.03295   -0.00231    0.12404
  5 Cu   -0.00397    0.00090   -0.02242
  6 Cu    0.01265   -0.01038    0.00461
  7 Cu    0.04189   -0.00423   -0.04079
  8 Cu    0.00559    0.00001   -0.00980
  9 Cu    0.00275   -0.00287   -0.00142
 10 Cu   -0.00147   -0.00184   -0.00812
 11 Cu   -0.00436   -0.00043    0.04245
 12 Cu    0.00187   -0.00000    0.00402
 13 Cu   -0.00255   -0.00047   -0.03108
 14 Cu    0.00901    0.00003    0.00460
 15 Cu    0.00127   -0.00250    0.00087
 16 Cu    0.00502   -0.00077    0.02166
 17 Cu    0.06471   -0.00277    0.01563
 18 Cu    0.00554   -0.00250   -0.06593
 19 Cu    0.01193    0.00917   -0.01590
 20 Cu    0.01396    0.06597    0.01841
 21 Cu   -0.04139    0.01125   -0.15487
 22 Cu   -0.00076   -0.00548    0.18775
 23 Cu   -0.01122   -0.01410    0.07632
 24 Cu    0.07051   -0.00404    0.10137
 25 Cu    0.00817    0.03804   -0.05572
 26 Cu    0.02272    0.01408   -0.07440
 27 Cu    0.02143   -0.00850    0.15061
 28 Cu    0.06364    0.00397    0.05190
 29 Cu   -0.00364   -0.00218   -0.02213
 30 Cu    0.01483    0.00835    0.00087
 31 Cu   -0.00149    0.00454    0.07130
 32 Cu    0.00240    0.00063    0.02335
 33 Cu    0.00328    0.00325    0.00158
 34 Cu   -0.00095    0.00218   -0.00325
 35 Cu    0.00651    0.00072    0.02649
 36 Cu    0.00068    0.00014    0.00432
 37 Cu   -0.00399    0.00033    0.01558
 38 Cu    0.00033    0.00016   -0.04013
 39 Cu    0.00155    0.00243    0.00561
 40 Cu    0.00542   -0.00113    0.02122
 41 Cu   -0.03218    0.00612   -0.05672
 42 Cu   -0.04233    0.00222    0.04494
 43 Cu    0.00974   -0.01186   -0.01519
 44 Cu    0.02154   -0.06622    0.01154
 45 Cu    0.04130   -0.00637    0.23553
 46 Cu    0.12313   -0.00174   -0.05178
 47 Cu   -0.01508    0.01606    0.07471
 48 Cu   -0.01286    0.08107    0.00079
 49 Cu   -0.09307    0.00359    0.09708
 50 Cu    0.02490   -0.00406    0.05142
 51 Cu   -0.00718    0.01020    0.01562
 52 Cu   -0.00125    0.00054    0.00031
 53 Cu   -0.00187    0.00002    0.03674
 54 Cu   -0.00249   -0.00196    0.00068
 55 Cu   -0.00567   -0.00080   -0.02455
 56 Cu   -0.07673   -0.00154   -0.08944
 57 Cu   -0.01741   -0.01028   -0.00400
 58 Cu   -0.01852   -0.04647    0.05229
 59 Cu    0.02426    0.00788   -0.11059
 60 Cu   -0.00343   -0.07197   -0.01919
 61 Cu   -0.05307   -0.00412   -0.16820
 62 Cu   -0.04684    0.00491   -0.01328
 63 Cu   -0.00982   -0.01102    0.01296
 64 Cu   -0.00197   -0.00030   -0.00081
 65 Cu   -0.00875   -0.00025   -0.00250
 66 Cu   -0.00141    0.00198    0.00204
 67 Cu    0.00519    0.00085   -0.04433
 68 Cu    0.05488    0.00297   -0.11465
 69 Cu   -0.01581    0.00898   -0.00691
 70 Cu   -0.02163    0.04733    0.03586
 71 Cu   -0.25151   -0.00331    0.16061
 72 Cl    0.03279   -0.00885    0.03349
 73 Cl   -0.09665    0.00223    0.01819
 74 Cl    0.05844   -0.01791   -0.19676
 75 Cl   -0.03139    0.04200    0.09651
 76 Cl    0.00534   -0.00296   -0.09380
 77 Cl   -0.00887   -0.00379    0.03380
 78 Cl   -0.09323   -0.03133   -0.09691
 79 Cl    0.08021    0.02117    0.06173

System changes: positions 

Initializing position-dependent things.

Density initialized from wave functions
      .------------------.  
     /|                  |  
    / |                  |  
   /  |                  |  
  /   |                  |  
 *    |                  |  
 |    |                  |  
 |    |                  |  
 |    |                  |  
 |    |                  |  
 |    |                  |  
 |    |    Cl      Cl    |  
 |    |                  |  
 |    |        Cu        |  
 |    | CuCl       CuCl  |  
 |    |                  |  
 |  CuCu  Cu Cu  CuCu    |  
 |    |  Cu    Cu  CuCu  |  
 |    |                  |  
 |Cu  CuCu  Cu     Cu    |  
 |  Cu|CuCuCu  CuCu  Cu  |  
 |    |                  |  
 |Cu  CuCu  Cu     Cu    |  
 |  Cu|CuCuCu  CuCu  Cu  |  
 |    |                  |  
 |    | Cu    Cu         |  
 |  CuCu CCuCu CuCuCuCu  |  
 |    |                  |  
 |    | Cu    Cu         |  
 |  CuCu CCuCu CuCuCuCu  |  
 |    |      Cu    Cu    |  
 |    |                  |  
 |CuCuCuCuCuCuCu ClCu    |  
 |    |          Cu      |  
 |    |                  |  
 |Cu  |      Cl      Cl  |  
 |    |                  |  
 |    |                  |  
 |    |                  |  
 |    |                  |  
 |    |                  |  
 |    |                  |  
 |    .------------------.  
 |   /                  /   
 |  /                  /    
 | /                  /     
 |/                  /      
 *------------------*       

Positions:
   0 Cu     2.920195   -0.008879    9.758459    ( 0.0000,  0.0000,  0.0000)
   1 Cu     1.613733    1.827822   11.332068    ( 0.0000,  0.0000,  0.0000)
   2 Cu     4.213446    1.858217   11.298074    ( 0.0000,  0.0000,  0.0000)
   3 Cu     0.255328    0.007694   10.076892    ( 0.0000,  0.0000,  0.0000)
   4 Cu     0.271219    0.000823   12.613970    ( 0.0000,  0.0000,  0.0000)
   5 Cu     4.202716    1.854546   13.920855    ( 0.0000,  0.0000,  0.0000)
   6 Cu     1.586709    1.836582   13.940399    ( 0.0000,  0.0000,  0.0000)
   7 Cu     2.909275    0.001390   12.542855    ( 0.0000,  0.0000,  0.0000)
   8 Cu     2.898187    0.000709   15.217298    ( 0.0000,  0.0000,  0.0000)
   9 Cu     1.586502    1.851654   16.550883    ( 0.0000,  0.0000,  0.0000)
  10 Cu     4.201590    1.851429   16.547678    ( 0.0000,  0.0000,  0.0000)
  11 Cu     0.273702   -0.000706   15.216973    ( 0.0000,  0.0000,  0.0000)
  12 Cu     0.279694   -0.002402   17.837540    ( 0.0000,  0.0000,  0.0000)
  13 Cu     4.205871    1.851645   19.183905    ( 0.0000,  0.0000,  0.0000)
  14 Cu     1.587421    1.851998   19.173283    ( 0.0000,  0.0000,  0.0000)
  15 Cu     2.895155    0.000908   17.847434    ( 0.0000,  0.0000,  0.0000)
  16 Cu     2.895327    0.003029   20.468415    ( 0.0000,  0.0000,  0.0000)
  17 Cu     1.587039    1.852065   21.844353    ( 0.0000,  0.0000,  0.0000)
  18 Cu     4.210078    1.852011   21.791144    ( 0.0000,  0.0000,  0.0000)
  19 Cu     0.277390    0.010453   20.446402    ( 0.0000,  0.0000,  0.0000)
  20 Cu     0.283856    0.024149   23.040499    ( 0.0000,  0.0000,  0.0000)
  21 Cu     4.235618    1.849975   24.317403    ( 0.0000,  0.0000,  0.0000)
  22 Cu     1.553299    1.840747   24.642606    ( 0.0000,  0.0000,  0.0000)
  23 Cu     2.889117    0.005766   23.084059    ( 0.0000,  0.0000,  0.0000)
  24 Cu     2.874571    3.704280   10.054053    ( 0.0000,  0.0000,  0.0000)
  25 Cu     1.612924    5.570786   11.337996    ( 0.0000,  0.0000,  0.0000)
  26 Cu     4.214477    5.539798   11.304927    ( 0.0000,  0.0000,  0.0000)
  27 Cu     0.336993    3.695862   10.118214    ( 0.0000,  0.0000,  0.0000)
  28 Cu     0.290558    3.698455   12.621056    ( 0.0000,  0.0000,  0.0000)
  29 Cu     4.202696    5.547861   13.921758    ( 0.0000,  0.0000,  0.0000)
  30 Cu     1.586437    5.566018   13.939730    ( 0.0000,  0.0000,  0.0000)
  31 Cu     2.887403    3.698770   12.594332    ( 0.0000,  0.0000,  0.0000)
  32 Cu     2.892044    3.700641   15.206580    ( 0.0000,  0.0000,  0.0000)
  33 Cu     1.588930    5.550502   16.553990    ( 0.0000,  0.0000,  0.0000)
  34 Cu     4.202618    5.550843   16.543595    ( 0.0000,  0.0000,  0.0000)
  35 Cu     0.281536    3.702421   15.223140    ( 0.0000,  0.0000,  0.0000)
  36 Cu     0.276521    3.703996   17.841011    ( 0.0000,  0.0000,  0.0000)
  37 Cu     4.200542    5.551417   19.173624    ( 0.0000,  0.0000,  0.0000)
  38 Cu     1.585266    5.550788   19.182400    ( 0.0000,  0.0000,  0.0000)
  39 Cu     2.896326    3.700348   17.843313    ( 0.0000,  0.0000,  0.0000)
  40 Cu     2.894780    3.699353   20.468559    ( 0.0000,  0.0000,  0.0000)
  41 Cu     1.583008    5.551090   21.775927    ( 0.0000,  0.0000,  0.0000)
  42 Cu     4.192149    5.549713   21.850746    ( 0.0000,  0.0000,  0.0000)
  43 Cu     0.277410    3.691730   20.449318    ( 0.0000,  0.0000,  0.0000)
  44 Cu     0.284639    3.675518   23.047573    ( 0.0000,  0.0000,  0.0000)
  45 Cu     4.180536    5.552663   24.635902    ( 0.0000,  0.0000,  0.0000)
  46 Cu     1.534405    5.559361   24.277027    ( 0.0000,  0.0000,  0.0000)
  47 Cu     2.889075    3.694203   23.088882    ( 0.0000,  0.0000,  0.0000)
  48 Cu     6.818428    1.870991   11.348774    ( 0.0000,  0.0000,  0.0000)
  49 Cu     5.561804   -0.002280   10.107102    ( 0.0000,  0.0000,  0.0000)
  50 Cu     5.514205    0.000525   12.614913    ( 0.0000,  0.0000,  0.0000)
  51 Cu     6.820083    1.859559   13.945710    ( 0.0000,  0.0000,  0.0000)
  52 Cu     6.821257    1.848290   16.552830    ( 0.0000,  0.0000,  0.0000)
  53 Cu     5.511647    0.001595   15.210232    ( 0.0000,  0.0000,  0.0000)
  54 Cu     5.509350    0.001759   17.838341    ( 0.0000,  0.0000,  0.0000)
  55 Cu     6.816496    1.850100   19.172212    ( 0.0000,  0.0000,  0.0000)
  56 Cu     6.807694    1.851103   21.774715    ( 0.0000,  0.0000,  0.0000)
  57 Cu     5.511968   -0.012458   20.452661    ( 0.0000,  0.0000,  0.0000)
  58 Cu     5.488673   -0.024146   23.053611    ( 0.0000,  0.0000,  0.0000)
  59 Cu     6.775400    1.852221   24.283688    ( 0.0000,  0.0000,  0.0000)
  60 Cu     6.818780    5.527730   11.353328    ( 0.0000,  0.0000,  0.0000)
  61 Cu     5.577964    3.706832    9.748654    ( 0.0000,  0.0000,  0.0000)
  62 Cu     5.512516    3.697667   12.546176    ( 0.0000,  0.0000,  0.0000)
  63 Cu     6.820006    5.542708   13.946376    ( 0.0000,  0.0000,  0.0000)
  64 Cu     6.818059    5.554309   16.555004    ( 0.0000,  0.0000,  0.0000)
  65 Cu     5.510429    3.700223   15.218022    ( 0.0000,  0.0000,  0.0000)
  66 Cu     5.511482    3.700002   17.841054    ( 0.0000,  0.0000,  0.0000)
  67 Cu     6.824366    5.553243   19.175723    ( 0.0000,  0.0000,  0.0000)
  68 Cu     6.828444    5.549320   21.777265    ( 0.0000,  0.0000,  0.0000)
  69 Cu     5.512230    3.714343   20.452032    ( 0.0000,  0.0000,  0.0000)
  70 Cu     5.488765    3.722479   23.058437    ( 0.0000,  0.0000,  0.0000)
  71 Cu     6.843065    5.550180   24.313704    ( 0.0000,  0.0000,  0.0000)
  72 Cl     3.272655    1.786346   26.286103    ( 0.0000,  0.0000,  0.0000)
  73 Cl     3.877741    3.646053    8.117293    ( 0.0000,  0.0000,  0.0000)
  74 Cl     5.888034    5.597685   26.264377    ( 0.0000,  0.0000,  0.0000)
  75 Cl     1.216000   -0.130430    8.134286    ( 0.0000,  0.0000,  0.0000)
  76 Cl     4.670578   -0.033195    8.116350    ( 0.0000,  0.0000,  0.0000)
  77 Cl     2.423619    5.471408   26.279662    ( 0.0000,  0.0000,  0.0000)
  78 Cl     7.328167    3.736082    8.099449    ( 0.0000,  0.0000,  0.0000)
  79 Cl    -0.185823    1.804836   26.287888    ( 0.0000,  0.0000,  0.0000)

Unit cell:
[...]
 73 Cl   -0.00129    0.00017   -0.00124
 74 Cl    0.00753   -0.00173   -0.01776
 75 Cl    0.00444    0.00887   -0.01315
 76 Cl    0.01024    0.00092    0.05081
 77 Cl   -0.00074   -0.00333   -0.00679
 78 Cl   -0.00749   -0.00585   -0.01145
 79 Cl    0.00036    0.00675   -0.00678

System changes: positions 

Initializing position-dependent things.

Density initialized from wave functions
      .------------------.  
     /|                  |  
    / |                  |  
   /  |                  |  
  /   |                  |  
 *    |                  |  
 |    |                  |  
 |    |                  |  
 |    |                  |  
 |    |                  |  
 |    |                  |  
 |    |    Cl      Cl    |  
 |    |                  |  
 |    |        Cu        |  
 |    | CuCl Cu    CuCl  |  
 |    |                  |  
 |  CuCu  CuCu   CuCu    |  
 |    |  Cu    Cu  CuCu  |  
 |    |                  |  
 |Cu  Cu  CuCu     Cu    |  
 |  Cu|  Cu    CuCuCuCu  |  
 |    |                  |  
 |Cu  CuCu  Cu     Cu    |  
 |  Cu|  CuCu  CuCu  Cu  |  
 |    |                  |  
 |Cu  | Cu               |  
 |  CuCu CuCCu CuCuCuCu  |  
 |    |      Cu    Cu    |  
 |Cu  | Cu    Cu         |  
 |  CuCu CuCCu CuCuCuCu  |  
 |    |      Cu          |  
 |    |                  |  
 |CuCuCu CCuCu   ClCu    |  
 |    |          Cu      |  
 |    |                  |  
 |Cu  |      ClCu    Cl  |  
 |    |                  |  
 |    |                  |  
 |    |                  |  
 |    |                  |  
 |    |                  |  
 |    |                  |  
 |    .------------------.  
 |   /                  /   
 |  /                  /    
 | /                  /     
 |/                  /      
 *------------------*       

Positions:
   0 Cu     2.942354   -0.008618    9.703943    ( 0.0000,  0.0000,  0.0000)
   1 Cu     1.620490    1.834840   11.333552    ( 0.0000,  0.0000,  0.0000)
   2 Cu     4.222285    1.843674   11.284842    ( 0.0000,  0.0000,  0.0000)
   3 Cu     0.282962    0.006892   10.083123    ( 0.0000,  0.0000,  0.0000)
   4 Cu     0.278483    0.000524   12.610649    ( 0.0000,  0.0000,  0.0000)
   5 Cu     4.209775    1.850277   13.907295    ( 0.0000,  0.0000,  0.0000)
   6 Cu     1.594787    1.832995   13.942674    ( 0.0000,  0.0000,  0.0000)
   7 Cu     2.919897   -0.001017   12.527138    ( 0.0000,  0.0000,  0.0000)
   8 Cu     2.903381    0.000209   15.210542    ( 0.0000,  0.0000,  0.0000)
   9 Cu     1.590371    1.848065   16.555982    ( 0.0000,  0.0000,  0.0000)
  10 Cu     4.202393    1.850404   16.539123    ( 0.0000,  0.0000,  0.0000)
  11 Cu     0.271955    0.000618   15.224704    ( 0.0000,  0.0000,  0.0000)
  12 Cu     0.278567    0.003858   17.840609    ( 0.0000,  0.0000,  0.0000)
  13 Cu     4.205052    1.850714   19.177752    ( 0.0000,  0.0000,  0.0000)
  14 Cu     1.592783    1.850970   19.184288    ( 0.0000,  0.0000,  0.0000)
  15 Cu     2.896603    0.000267   17.847876    ( 0.0000,  0.0000,  0.0000)
  16 Cu     2.891605    0.000685   20.478943    ( 0.0000,  0.0000,  0.0000)
  17 Cu     1.590092    1.850170   21.870341    ( 0.0000,  0.0000,  0.0000)
  18 Cu     4.202849    1.851019   21.789107    ( 0.0000,  0.0000,  0.0000)
  19 Cu     0.275420    0.019554   20.450973    ( 0.0000,  0.0000,  0.0000)
  20 Cu     0.277173    0.012539   23.061010    ( 0.0000,  0.0000,  0.0000)
  21 Cu     4.228765    1.856196   24.310569    ( 0.0000,  0.0000,  0.0000)
  22 Cu     1.594201    1.837710   24.682415    ( 0.0000,  0.0000,  0.0000)
  23 Cu     2.883330   -0.004264   23.105108    ( 0.0000,  0.0000,  0.0000)
  24 Cu     2.879295    3.701069   10.083247    ( 0.0000,  0.0000,  0.0000)
  25 Cu     1.618676    5.565161   11.329529    ( 0.0000,  0.0000,  0.0000)
  26 Cu     4.223544    5.555300   11.286185    ( 0.0000,  0.0000,  0.0000)
  27 Cu     0.323336    3.695261   10.087933    ( 0.0000,  0.0000,  0.0000)
  28 Cu     0.304091    3.700740   12.613327    ( 0.0000,  0.0000,  0.0000)
  29 Cu     4.210114    5.552741   13.910857    ( 0.0000,  0.0000,  0.0000)
  30 Cu     1.593656    5.570708   13.938869    ( 0.0000,  0.0000,  0.0000)
  31 Cu     2.900753    3.702423   12.600554    ( 0.0000,  0.0000,  0.0000)
  32 Cu     2.894398    3.701690   15.210461    ( 0.0000,  0.0000,  0.0000)
  33 Cu     1.589282    5.554452   16.554945    ( 0.0000,  0.0000,  0.0000)
  34 Cu     4.201562    5.551937   16.539921    ( 0.0000,  0.0000,  0.0000)
  35 Cu     0.288905    3.701407   15.225125    ( 0.0000,  0.0000,  0.0000)
  36 Cu     0.280344    3.697858   17.840272    ( 0.0000,  0.0000,  0.0000)
  37 Cu     4.195534    5.552122   19.177651    ( 0.0000,  0.0000,  0.0000)
  38 Cu     1.582755    5.551808   19.182486    ( 0.0000,  0.0000,  0.0000)
  39 Cu     2.896372    3.701010   17.848660    ( 0.0000,  0.0000,  0.0000)
  40 Cu     2.890898    3.702248   20.481847    ( 0.0000,  0.0000,  0.0000)
  41 Cu     1.569040    5.553550   21.791420    ( 0.0000,  0.0000,  0.0000)
  42 Cu     4.184138    5.552517   21.863762    ( 0.0000,  0.0000,  0.0000)
  43 Cu     0.276697    3.682753   20.450753    ( 0.0000,  0.0000,  0.0000)
  44 Cu     0.278780    3.686802   23.059495    ( 0.0000,  0.0000,  0.0000)
  45 Cu     4.163490    5.541951   24.684212    ( 0.0000,  0.0000,  0.0000)
  46 Cu     1.526715    5.554827   24.316449    ( 0.0000,  0.0000,  0.0000)
  47 Cu     2.882454    3.705168   23.105679    ( 0.0000,  0.0000,  0.0000)
  48 Cu     6.826807    1.863582   11.332477    ( 0.0000,  0.0000,  0.0000)
  49 Cu     5.579553    0.001685   10.075334    ( 0.0000,  0.0000,  0.0000)
  50 Cu     5.535700   -0.001013   12.599302    ( 0.0000,  0.0000,  0.0000)
  51 Cu     6.824625    1.870024   13.940266    ( 0.0000,  0.0000,  0.0000)
  52 Cu     6.818066    1.854076   16.549102    ( 0.0000,  0.0000,  0.0000)
  53 Cu     5.516918    0.000525   15.206631    ( 0.0000,  0.0000,  0.0000)
  54 Cu     5.509374   -0.002787   17.833877    ( 0.0000,  0.0000,  0.0000)
  55 Cu     6.810349    1.851244   19.164661    ( 0.0000,  0.0000,  0.0000)
  56 Cu     6.799682    1.850264   21.778437    ( 0.0000,  0.0000,  0.0000)
  57 Cu     5.506879   -0.017913   20.451300    ( 0.0000,  0.0000,  0.0000)
  58 Cu     5.486536   -0.014901   23.061353    ( 0.0000,  0.0000,  0.0000)
  59 Cu     6.786386    1.854802   24.307185    ( 0.0000,  0.0000,  0.0000)
  60 Cu     6.827564    5.535144   11.327460    ( 0.0000,  0.0000,  0.0000)
  61 Cu     5.513237    3.698379    9.707481    ( 0.0000,  0.0000,  0.0000)
  62 Cu     5.513101    3.701167   12.520337    ( 0.0000,  0.0000,  0.0000)
  63 Cu     6.825584    5.533097   13.937210    ( 0.0000,  0.0000,  0.0000)
  64 Cu     6.820346    5.548360   16.547503    ( 0.0000,  0.0000,  0.0000)
  65 Cu     5.506591    3.701333   15.204412    ( 0.0000,  0.0000,  0.0000)
  66 Cu     5.508067    3.704295   17.831677    ( 0.0000,  0.0000,  0.0000)
  67 Cu     6.827471    5.552060   19.163996    ( 0.0000,  0.0000,  0.0000)
  68 Cu     6.825017    5.550457   21.779019    ( 0.0000,  0.0000,  0.0000)
  69 Cu     5.506473    3.719862   20.445710    ( 0.0000,  0.0000,  0.0000)
  70 Cu     5.486028    3.714188   23.055884    ( 0.0000,  0.0000,  0.0000)
  71 Cu     6.821762    5.546803   24.309604    ( 0.0000,  0.0000,  0.0000)
  72 Cl     3.357917    1.770258   26.308779    ( 0.0000,  0.0000,  0.0000)
  73 Cl     3.748884    3.653361    8.080082    ( 0.0000,  0.0000,  0.0000)
  74 Cl     5.889007    5.575910   26.294505    ( 0.0000,  0.0000,  0.0000)
  75 Cl     1.214522   -0.073220    8.095671    ( 0.0000,  0.0000,  0.0000)
  76 Cl     4.707389   -0.039809    8.076075    ( 0.0000,  0.0000,  0.0000)
  77 Cl     2.401151    5.468152   26.313970    ( 0.0000,  0.0000,  0.0000)
  78 Cl     7.241739    3.684377    8.100331    ( 0.0000,  0.0000,  0.0000)
  79 Cl    -0.132360    1.843397   26.293247    ( 0.0000,  0.0000,  0.0000)

Unit cell:
           periodic     x           y           z      points  spacing
  1. axis:    yes    7.851007    0.000000    0.000000    45     0.1745
  2. axis:    yes    0.000000    7.402000    0.000000    42     0.1762
  3. axis:    yes    0.000000    0.000000   34.393512   196     0.1755

  Lengths:   7.851007   7.402000  34.393512
  Angles:   90.000000  90.000000  90.000000

Effective grid spacing dv^(1/3) = 0.1754

     iter     time        total  log10-change:
                         energy  eigst   dens
iter:   1 21:18:10 -5749.287387  -3.90
iter:   2 21:19:45 -5749.340817  -3.72  -2.92
iter:   3 21:21:09 -5749.255570c -4.16  -2.85
iter:   4 21:22:42 -5749.218941c -5.13  -3.08
iter:   5 21:24:03 -5749.218212c -5.76  -3.81
iter:   6 21:25:37 -5749.218379c -6.01  -3.99
iter:   7 21:27:19 -5749.218317c -6.81  -4.19c
iter:   8 21:28:42 -5749.218374c -6.65  -4.26c
iter:   9 21:30:20 -5749.218300c -7.38  -4.41c
iter:  10 21:32:06 -5749.218235c -7.38  -4.51c
iter:  11 21:33:51 -5749.218256c -8.14c -4.66c

Converged after 11 iterations.

Dipole moment: (-54.051475, 9.475638, 0.002223) |e|*Ang

Energy contributions relative to reference atoms: (reference = -3341984.127726)

Kinetic:       +556.339316
Potential:     -616.127821
External:        +0.000000
XC:            -5688.255517
Entropy (-ST):   -0.710137
Local:           -0.819167
--------------------------
Free energy:   -5749.573325
Extrapolated:  -5749.218256

Showing only first 2 kpts
 Kpt  Band  Eigenvalues  Occupancy
  0   422      0.33670    0.90229
  0   423      0.35511    0.81216
  0   424      0.45069    0.41636
  0   425      0.48389    0.31739

  1   422     -0.07725    1.96197
  1   423      0.04617    1.87514
  1   424      0.06941    1.84500
  1   425      0.09679    1.80104


Fermi level: 0.31709

No gap

Forces in eV/Ang:
  0 Cu   -0.00212    0.00172    0.00541
  1 Cu    0.00014   -0.00751   -0.00794
  2 Cu   -0.00256    0.00549   -0.00400
  3 Cu    0.00659   -0.00273   -0.01849
  4 Cu   -0.00610   -0.00020   -0.00397
  5 Cu    0.00001    0.00020   -0.00188
  6 Cu    0.00317    0.00132   -0.00833
  7 Cu    0.00187    0.00101    0.00369
  8 Cu    0.00085    0.00057    0.00434
  9 Cu   -0.00049    0.00383    0.00015
 10 Cu   -0.00030    0.00122    0.00324
 11 Cu    0.00809   -0.00167    0.00070
 12 Cu    0.00203   -0.00363   -0.00139
 13 Cu   -0.00304    0.00088   -0.00398
 14 Cu   -0.00466    0.00109   -0.00293
 15 Cu   -0.00111    0.00040    0.00035
 16 Cu    0.00014   -0.00079    0.00413
 17 Cu    0.00145    0.00094   -0.00847
 18 Cu   -0.00168    0.00137    0.00832
 19 Cu    0.00075   -0.00228    0.00517
 20 Cu    0.00153    0.00266    0.00535
 21 Cu    0.01636   -0.00094   -0.01679
 22 Cu    0.00269    0.00200   -0.00519
 23 Cu    0.00139    0.00471    0.00390
 24 Cu    0.00021    0.00131   -0.02488
 25 Cu   -0.00128    0.00690   -0.00322
 26 Cu   -0.00258   -0.00618   -0.00654
 27 Cu   -0.01208    0.00380   -0.02035
 28 Cu    0.00584   -0.00036   -0.00456
 29 Cu   -0.00005   -0.00066   -0.00550
 30 Cu    0.00520   -0.00228   -0.00300
 31 Cu    0.00218   -0.00255   -0.00196
 32 Cu    0.00427   -0.00053    0.00502
 33 Cu    0.00341   -0.00332    0.00071
 34 Cu    0.00288   -0.00069    0.00179
 35 Cu   -0.00109    0.00145    0.00119
 36 Cu   -0.00353    0.00410    0.00086
 37 Cu    0.00134   -0.00102   -0.00279
 38 Cu    0.00171   -0.00128   -0.00117
 39 Cu    0.00077    0.00011   -0.00171
 40 Cu    0.00002    0.00015    0.00121
 41 Cu    0.00330   -0.00152    0.00627
 42 Cu   -0.00180   -0.00184   -0.00685
 43 Cu   -0.00092    0.00195    0.00857
 44 Cu    0.00215   -0.00304    0.00799
 45 Cu   -0.00370   -0.00001   -0.00657
 46 Cu   -0.00569    0.00187   -0.01008
 47 Cu    0.00095   -0.00521    0.00162
 48 Cu   -0.00395    0.00165   -0.00721
 49 Cu    0.00639   -0.00124    0.01480
 50 Cu   -0.00553    0.00147   -0.00758
 51 Cu    0.00135   -0.00235   -0.00891
 52 Cu    0.00492   -0.00329    0.00018
 53 Cu   -0.00148    0.00118    0.00165
 54 Cu   -0.00248    0.00434   -0.00028
 55 Cu    0.00253   -0.00139   -0.00200
 56 Cu   -0.00606    0.00051    0.00756
 57 Cu   -0.00351    0.00129    0.00387
 58 Cu    0.00153   -0.00255    0.00343
 59 Cu   -0.00150   -0.00178   -0.00722
 60 Cu   -0.00263   -0.00066   -0.00447
 61 Cu   -0.00712   -0.00139    0.00449
 62 Cu   -0.00194   -0.00134    0.00633
 63 Cu   -0.00094    0.00202   -0.00585
 64 Cu   -0.00235    0.00392    0.00174
 65 Cu    0.00568   -0.00116    0.00285
 66 Cu    0.00117   -0.00370    0.00115
 67 Cu   -0.00680    0.00142   -0.00028
 68 Cu    0.00564   -0.00045    0.00830
 69 Cu   -0.00196   -0.00138    0.00843
 70 Cu    0.00079    0.00187    0.00740
 71 Cu    0.01208    0.00156   -0.01677
 72 Cl   -0.00059   -0.00489    0.00695
 73 Cl   -0.00779    0.00308    0.02452
 74 Cl    0.00311   -0.00069    0.01770
 75 Cl   -0.00415    0.00884    0.01476
 76 Cl   -0.00260   -0.00220    0.00245
 77 Cl   -0.00276   -0.00233   -0.00336
 78 Cl    0.00496   -0.00421   -0.00310
 79 Cl   -0.00092    0.00673    0.01467

Timing:                                      incl.     excl.
-------------------------------------------------------------------
Density initialized from wave functions:    90.716    90.715   0.4% |
 Symmetrize density:                         0.001     0.001   0.0% |
Forces:                                    445.370   445.370   2.0% ||
Hamiltonian:                               120.126     0.220   0.0% |
 Atomic:                                     5.419     2.179   0.0% |
  XC Correction:                             3.240     3.240   0.0% |
 Calculate atomic Hamiltonians:             35.300    35.300   0.2% |
 Communicate:                                0.337     0.337   0.0% |
 Initialize Hamiltonian:                     0.002     0.002   0.0% |
 Poisson:                                    0.083     0.083   0.0% |
 XC 3D grid:                                78.765    10.865   0.0% |
  VdW-DF integral:                          67.899     2.782   0.0% |
   Convolution:                              4.479     4.479   0.0% |
   FFT:                                      2.315     2.315   0.0% |
   gather:                                  18.920    18.920   0.1% |
   hmm1:                                     1.349     1.349   0.0% |
   hmm2:                                     3.280     3.280   0.0% |
   iFFT:                                     2.354     2.354   0.0% |
   potential:                               24.215     0.267   0.0% |
    collect:                                 3.671     3.671   0.0% |
    p1:                                     11.420    11.420   0.1% |
    p2:                                      4.321     4.321   0.0% |
    sum:                                     4.536     4.536   0.0% |
   splines:                                  8.206     8.206   0.0% |
LCAO initialization:                       457.758     0.510   0.0% |
 LCAO eigensolver:                          16.145     0.004   0.0% |
  Blacs Orbital Layouts:                     1.151     0.003   0.0% |
   General diagonalize:                      1.129     1.129   0.0% |
   Redistribute coefs:                       0.014     0.014   0.0% |
   Send coefs to domains:                    0.006     0.006   0.0% |
  Calculate projections:                     0.020     0.020   0.0% |
  Distribute overlap matrix:                14.445     0.002   0.0% |
   Scalapack redistribute:                   0.038     0.038   0.0% |
   blocked summation:                       14.405    14.405   0.1% |
  Potential matrix:                          0.289     0.289   0.0% |
  SparseAtomicCorrection:                    0.032     0.032   0.0% |
  Sum over cells:                            0.204     0.204   0.0% |
 LCAO to grid:                             437.689   437.689   2.0% ||
 Set positions (LCAO WFS):                   3.414     0.047   0.0% |
  Basic WFS set positions:                   0.003     0.003   0.0% |
  Basis functions set positions:             0.001     0.001   0.0% |
  P tci:                                     0.059     0.059   0.0% |
  ST tci:                                    0.601     0.601   0.0% |
  Scalapack redistribute:                    0.044     0.044   0.0% |
  blocked summation:                         2.461     2.461   0.0% |
  mktci:                                     0.197     0.197   0.0% |
PWDescriptor:                                0.861     0.861   0.0% |
Redistribute:                                0.027     0.027   0.0% |
SCF-cycle:                               20561.555   780.677   3.6% ||
 Davidson:                               15608.653  4238.467  19.4% |-------|
  Apply H:                                1410.542  1385.619   6.3% |--|
   HMM T:                                   24.922    24.922   0.1% |
  Subspace diag:                          2523.960     0.059   0.0% |
   calc_h_matrix:                         1776.387   461.883   2.1% ||
    Apply H:                              1314.504  1288.047   5.9% |-|
     HMM T:                                 26.458    26.458   0.1% |
   diagonalize:                             97.497    97.497   0.4% |
   rotate_psi:                             650.018   650.018   3.0% ||
  calc. matrices:                         5632.801  3057.818  14.0% |-----|
   Apply H:                               2574.983  2526.700  11.6% |----|
    HMM T:                                  48.283    48.283   0.2% |
  diagonalize:                             582.778   582.778   2.7% ||
  rotate_psi:                             1220.104  1220.104   5.6% |-|
 Density:                                 1580.580     0.012   0.0% |
  Atomic density matrices:                   6.649     6.649   0.0% |
  Mix:                                     807.507   807.507   3.7% ||
  Multipole moments:                         0.319     0.319   0.0% |
  Pseudo density:                          766.093   766.083   3.5% ||
   Symmetrize density:                       0.010     0.010   0.0% |
 Hamiltonian:                             2504.382     4.361   0.0% |
  Atomic:                                  136.153    73.024   0.3% |
   XC Correction:                           63.129    63.129   0.3% |
  Calculate atomic Hamiltonians:           687.245   687.245   3.1% ||
  Communicate:                              41.279    41.279   0.2% |
  Poisson:                                   1.561     1.561   0.0% |
  XC 3D grid:                             1633.781   240.040   1.1% |
   VdW-DF integral:                       1393.741    46.803   0.2% |
    Convolution:                            77.802    77.802   0.4% |
    FFT:                                    40.029    40.029   0.2% |
    gather:                                598.454   598.454   2.7% ||
    hmm1:                                   24.044    24.044   0.1% |
    hmm2:                                   57.758    57.758   0.3% |
    iFFT:                                   43.983    43.983   0.2% |
    potential:                             504.865     5.586   0.0% |
     collect:                               77.244    77.244   0.4% |
     p1:                                   215.716   215.716   1.0% |
     p2:                                    83.670    83.670   0.4% |
     sum:                                  122.648   122.648   0.6% |
    splines:                                 0.003     0.003   0.0% |
 Orthonormalize:                            87.265     0.006   0.0% |
  calc_s_matrix:                            14.391    14.391   0.1% |
  inverse-cholesky:                          2.721     2.721   0.0% |
  projections:                              50.632    50.632   0.2% |
  rotate_psi_s:                             19.515    19.515   0.1% |
Set symmetry:                                0.001     0.001   0.0% |
Other:                                     149.366   149.366   0.7% |
-------------------------------------------------------------------
Total:                                             21825.780 100.0%

Memory usage: 1.55 GiB
Date: Fri Oct 14 21:34:21 2022
