
  ___ ___ ___ _ _ _  
 |   |   |_  | | | | 
 | | | | | . | | | | 
 |__ |  _|___|_____|  22.1.0
 |___|_|             

User:   thorkong@node029.cluster
Date:   Mon Oct 17 13:27:11 2022
Arch:   x86_64
Pid:    20354
Python: 3.10.5
gpaw:   /groups/kemi/thorkong/miniconda3/envs/gpaw22/lib/python3.10/site-packages/gpaw
_gpaw:  /groups/kemi/thorkong/miniconda3/envs/gpaw22/lib/python3.10/site-packages/
        _gpaw.cpython-310-x86_64-linux-gnu.so
ase:    /groups/kemi/thorkong/miniconda3/envs/gpaw22/lib/python3.10/site-packages/ase (version 3.22.1)
numpy:  /groups/kemi/thorkong/miniconda3/envs/gpaw22/lib/python3.10/site-packages/numpy (version 1.23.0)
scipy:  /groups/kemi/thorkong/miniconda3/envs/gpaw22/lib/python3.10/site-packages/scipy (version 1.8.1)
libxc:  5.2.3
units:  Angstrom and eV
cores: 32
OpenMP: True
OMP_NUM_THREADS: 1

Input parameters:
  basis: dzp
  kpts: [4 4 1]
  mode: {ecut: 600.0,
         name: pw}
  xc: BEEF-vdW

System changes: positions, numbers, cell, pbc, initial_charges, initial_magmoms 

Initialize ...

Cu-setup:
  name: Copper
  id: f1c4d45d90492f1bbfdcb091e8418fdf
  Z: 29.0
  valence: 11
  core: 18
  charge: 0.0
  file: /groups/kemi/thorkong/miniconda3/envs/gpaw22/share/gpaw/Cu.PBE.gz
  compensation charges: gauss, rc=0.33, lmax=2
  cutoffs: 2.06(filt), 2.43(core),
  valence states:
                energy  radius
    4s(1.00)    -4.609   1.164
    4p(0.00)    -0.698   1.164
    3d(10.00)    -5.039   1.058
    *s          22.603   1.164
    *p          26.513   1.164
    *d          22.172   1.058

  LCAO basis set for Cu:
    Name: dzp
    File: /groups/kemi/thorkong/miniconda3/envs/gpaw22/share/gpaw/Cu.dzp.basis.gz
    Number of radial functions: 5
    Number of spherical harmonics: 15
      l=0, rc=8.9688 Bohr: 4s-sz confined orbital
      l=2, rc=5.1719 Bohr: 3d-sz confined orbital
      l=0, rc=5.3281 Bohr: 4s-dz split-valence wave
      l=2, rc=3.1406 Bohr: 3d-dz split-valence wave
      l=1, rc=8.9688 Bohr: p-type Gaussian polarization

Cl-setup:
  name: Chlorine
  id: 726897f06f34e53cf8e33b5885a02604
  Z: 17.0
  valence: 7
  core: 10
  charge: 0.0
  file: /groups/kemi/thorkong/miniconda3/envs/gpaw22/share/gpaw/Cl.PBE.gz
  compensation charges: gauss, rc=0.25, lmax=2
  cutoffs: 1.40(filt), 1.49(core),
  valence states:
                energy  radius
    3s(2.00)   -20.689   0.794
    3p(5.00)    -8.594   0.794
    *s           6.523   0.794
    *p          18.617   0.794
    *d           0.000   0.794

  LCAO basis set for Cl:
    Name: dzp
    File: /groups/kemi/thorkong/miniconda3/envs/gpaw22/share/gpaw/Cl.dzp.basis.gz
    Number of radial functions: 5
    Number of spherical harmonics: 13
      l=0, rc=5.1719 Bohr: 3s-sz confined orbital
      l=1, rc=6.2656 Bohr: 3p-sz confined orbital
      l=0, rc=2.8281 Bohr: 3s-dz split-valence wave
      l=1, rc=3.5156 Bohr: 3p-dz split-valence wave
      l=2, rc=6.2656 Bohr: d-type Gaussian polarization

Reference energy: -2606927.690960

Spin-paired calculation

Convergence criteria:
 Maximum [total energy] change in last 3 cyles: 0.0005 eV / electron
 Maximum integral of absolute [dens]ity change: 0.0001 electrons / valence electron
 Maximum integral of absolute [eigenst]ate change: 4e-08 eV^2 / valence electron
 Maximum number of scf [iter]ations: 333
 (Square brackets indicate name in SCF output, whereas a 'c' in
 the SCF output indicates the quantity has converged.)

Symmetries present (total): 1

  ( 1  0  0)
  ( 0  1  0)
  ( 0  0  1)

16 k-points: 4 x 4 x 1 Monkhorst-Pack grid
8 k-points in the irreducible part of the Brillouin zone
       k-points in crystal coordinates                weights
   0:     0.12500000   -0.37500000    0.00000000          2/16
   1:     0.12500000   -0.12500000    0.00000000          2/16
   2:     0.12500000    0.12500000    0.00000000          2/16
   3:     0.12500000    0.37500000    0.00000000          2/16
   4:     0.37500000   -0.37500000    0.00000000          2/16
   5:     0.37500000   -0.12500000    0.00000000          2/16
   6:     0.37500000    0.12500000    0.00000000          2/16
   7:     0.37500000    0.37500000    0.00000000          2/16

Wave functions: Plane wave expansion
  Cutoff energy: 600.000 eV
  Number of coefficients (min, max): 54614, 54705
  Pulay-stress correction: 0.000000 eV/Ang^3 (de/decut=0.000000)
  Using FFTW library
  ScaLapack parameters: grid=2x2, blocksize=64
  Wavefunction extrapolation:
    Improved wavefunction reuse through dual PAW basis 

Occupation numbers: Fermi-Dirac: width=0.1000 eV
 

Eigensolver
   Davidson(niter=2) 

Densities:
  Coarse grid: 45*45*175 grid
  Fine grid: 90*90*350 grid
  Total Charge: 0.000000 

Density mixing:
  Method: separate
  Backend: pulay
  Linear mixing parameter: 0.05
  Mixing with 5 old densities
  Damping of long wave oscillations: 50 

Hamiltonian:
  XC and Coulomb potentials evaluated on a 90*90*350 grid
  Using the BEEF-vdW Exchange-Correlation functional
  External potential:
    NoExternalPotential
 

XC parameters: BEEF-vdW with 2 nearest neighbor stencil

Memory estimate:
  Process memory now: 241.60 MiB
  Calculator: 804.71 MiB
    Density: 42.61 MiB
      Arrays: 17.67 MiB
      Localized functions: 18.14 MiB
      Mixer: 6.80 MiB
    Hamiltonian: 12.00 MiB
      Arrays: 11.56 MiB
      XC: 0.00 MiB
      Poisson: 0.00 MiB
      vbar: 0.44 MiB
    Wavefunctions: 750.10 MiB
      Arrays psit_nG: 350.59 MiB
      Eigensolver: 381.69 MiB
      Projections: 1.85 MiB
      Projectors: 2.09 MiB
      PW-descriptor: 13.88 MiB

Total number of cores used: 32
Parallelization over k-points: 8
Domain decomposition: 1 x 1 x 4
                      2 x 2 x 8 (xc only)

Number of atoms: 68
Number of atomic orbitals: 992
Number of bands in calculation: 420
Number of valence electrons: 692
Bands to converge: occupied

... initialized

Initializing position-dependent things.

Density initialized from atomic densities
Creating initial wave functions:
  420 bands from LCAO basis set

                                              
                                              
                                              
                                              
                     Cl     Cl     Cl         
                                              
                 Cl    Cl                     
            Cl          CCl   Cu     Cu       
                   Cu     Cu    Cu            
               Cu    Cu     Cu                
                    Cu     Cu    Cu           
                Cu    Cu    Cu                
           Cu    Cu     Cu                    
                Cu     Cu    Cu               
            Cu    Cu     Cu                   
       Cu     Cu        Cu    Cu     Cu       
                   CCu    Cu    Cu            
               Cu    Cu     Cu                
                    Cu     Cu    Cu           
                Cu    Cu    Cu                
           Cu    Cu     Cu                    
                Cu     Cu    Cu               
            Cu    Cu     Cu                   
       Cu     Cu   CCu          Cl            
                     Cl     Cl                
               Cl                             
         Cl            Cl                     
                                              
                                              
                                              
                                              

Positions:
   0 Cu     2.884162   -0.011729   10.033678    ( 0.0000,  0.0000,  0.0000)
   1 Cu     4.175487    2.207390    9.968025    ( 0.0000,  0.0000,  0.0000)
   2 Cu     0.268779    0.005327   10.035957    ( 0.0000,  0.0000,  0.0000)
   3 Cu     1.563079    2.250160   10.040939    ( 0.0000,  0.0000,  0.0000)
   4 Cu     2.905835    3.013667   12.132731    ( 0.0000,  0.0000,  0.0000)
   5 Cu     1.587256    0.751197   12.155983    ( 0.0000,  0.0000,  0.0000)
   6 Cu     5.501600    3.021336   12.124235    ( 0.0000,  0.0000,  0.0000)
   7 Cu     4.203724    0.772150   12.120007    ( 0.0000,  0.0000,  0.0000)
   8 Cu     5.509809    1.511263   14.273560    ( 0.0000,  0.0000,  0.0000)
   9 Cu     6.817749    3.779201   14.272965    ( 0.0000,  0.0000,  0.0000)
  10 Cu     2.895657    1.507106   14.282845    ( 0.0000,  0.0000,  0.0000)
  11 Cu     4.204745    3.779097   14.275593    ( 0.0000,  0.0000,  0.0000)
  12 Cu     2.898323   -0.006205   16.439255    ( 0.0000,  0.0000,  0.0000)
  13 Cu     4.202828    2.263486   16.411249    ( 0.0000,  0.0000,  0.0000)
  14 Cu     0.271173   -0.001683   16.415015    ( 0.0000,  0.0000,  0.0000)
  15 Cu     1.580207    2.267720   16.418056    ( 0.0000,  0.0000,  0.0000)
  16 Cu     2.898773    3.019517   18.534881    ( 0.0000,  0.0000,  0.0000)
  17 Cu     1.574509    0.759578   18.535562    ( 0.0000,  0.0000,  0.0000)
  18 Cu     5.517461    3.017381   18.557838    ( 0.0000,  0.0000,  0.0000)
  19 Cu     4.218777    0.769327   18.565915    ( 0.0000,  0.0000,  0.0000)
  20 Cu     5.482458    1.472743   20.721328    ( 0.0000,  0.0000,  0.0000)
  21 Cu     6.840691    3.826186   20.718062    ( 0.0000,  0.0000,  0.0000)
  22 Cu     2.872766    1.512688   20.651496    ( 0.0000,  0.0000,  0.0000)
  23 Cu     4.179191    3.794081   20.647081    ( 0.0000,  0.0000,  0.0000)
  24 Cu     5.533098    4.559222    9.954112    ( 0.0000,  0.0000,  0.0000)
  25 Cu     2.867968    4.534051   10.029210    ( 0.0000,  0.0000,  0.0000)
  26 Cu     4.213127    5.276205   12.126541    ( 0.0000,  0.0000,  0.0000)
  27 Cu     6.799507    5.268601   12.115394    ( 0.0000,  0.0000,  0.0000)
  28 Cu     8.121886    6.047639   14.244202    ( 0.0000,  0.0000,  0.0000)
  29 Cu     5.516666    6.046671   14.278211    ( 0.0000,  0.0000,  0.0000)
  30 Cu     5.511110    4.531825   16.410270    ( 0.0000,  0.0000,  0.0000)
  31 Cu     2.888634    4.532926   16.406558    ( 0.0000,  0.0000,  0.0000)
  32 Cu     4.204789    5.283723   18.534523    ( 0.0000,  0.0000,  0.0000)
  33 Cu     6.814487    5.265823   18.565627    ( 0.0000,  0.0000,  0.0000)
  34 Cu     8.131354    6.045561   20.650058    ( 0.0000,  0.0000,  0.0000)
  35 Cu     5.501317    6.065983   20.648502    ( 0.0000,  0.0000,  0.0000)
  36 Cu     5.515639   -0.030915   10.037620    ( 0.0000,  0.0000,  0.0000)
  37 Cu     6.838300    2.241957   10.038361    ( 0.0000,  0.0000,  0.0000)
  38 Cu     8.121401    3.021170   12.150082    ( 0.0000,  0.0000,  0.0000)
  39 Cu     6.815400    0.755845   12.149679    ( 0.0000,  0.0000,  0.0000)
  40 Cu     8.132578    1.510559   14.278234    ( 0.0000,  0.0000,  0.0000)
  41 Cu     9.440817    3.775125   14.268637    ( 0.0000,  0.0000,  0.0000)
  42 Cu     5.504098   -0.004613   16.403245    ( 0.0000,  0.0000,  0.0000)
  43 Cu     6.816730    2.264183   16.407976    ( 0.0000,  0.0000,  0.0000)
  44 Cu     8.113114    3.026556   18.553628    ( 0.0000,  0.0000,  0.0000)
  45 Cu     6.806143    0.763216   18.553497    ( 0.0000,  0.0000,  0.0000)
  46 Cu     8.148557    1.500971   20.654047    ( 0.0000,  0.0000,  0.0000)
  47 Cu     9.453486    3.785452   20.645604    ( 0.0000,  0.0000,  0.0000)
  48 Cu     8.143342    4.522704   10.030314    ( 0.0000,  0.0000,  0.0000)
  49 Cu     9.444142    5.279553   12.148158    ( 0.0000,  0.0000,  0.0000)
  50 Cu    10.750397    6.043904   14.266863    ( 0.0000,  0.0000,  0.0000)
  51 Cu     8.125450    4.536072   16.403731    ( 0.0000,  0.0000,  0.0000)
  52 Cu     9.432612    5.289470   18.528114    ( 0.0000,  0.0000,  0.0000)
  53 Cu    10.748665    6.030225   20.646267    ( 0.0000,  0.0000,  0.0000)
  54 Cl     6.147134    2.664301   22.667231    ( 0.0000,  0.0000,  0.0000)
  55 Cl     4.853098    3.366848    8.014863    ( 0.0000,  0.0000,  0.0000)
  56 Cl    10.101076    4.907838   23.055936    ( 0.0000,  0.0000,  0.0000)
  57 Cl     0.915929    1.127744    7.628448    ( 0.0000,  0.0000,  0.0000)
  58 Cl     8.857645    5.743262    7.623330    ( 0.0000,  0.0000,  0.0000)
  59 Cl     2.077612    0.292715   23.096412    ( 0.0000,  0.0000,  0.0000)
  60 Cl     4.840254    4.930032   23.057792    ( 0.0000,  0.0000,  0.0000)
  61 Cl     6.176970    1.105521    7.627990    ( 0.0000,  0.0000,  0.0000)
  62 Cl     3.525825    5.890548    7.624209    ( 0.0000,  0.0000,  0.0000)
  63 Cl     7.377612    0.192715   23.096412    ( 0.0000,  0.0000,  0.0000)
  64 Cl     3.535671    2.617828   22.668468    ( 0.0000,  0.0000,  0.0000)
  65 Cl     7.796854    2.949642    7.999351    ( 0.0000,  0.0000,  0.0000)
  66 Cl     3.285427    1.026889    7.992637    ( 0.0000,  0.0000,  0.0000)
  67 Cl     7.486022    4.935873   23.094060    ( 0.0000,  0.0000,  0.0000)

Unit cell:
           periodic     x           y           z      points  spacing
  1. axis:    yes    7.851007    0.000000    0.000000    45     0.1511
  2. axis:    yes    3.925503    6.799171    0.000000    45     0.1511
  3. axis:    yes    0.000000    0.000000   30.683867   175     0.1753

  Lengths:   7.851007   7.851006  30.683867
  Angles:   90.000000  90.000000  60.000001

Effective grid spacing dv^(1/3) = 0.1666

     iter     time        total  log10-change:
                         energy  eigst   dens
iter:   1 13:33:51 -5407.827464
iter:   2 13:34:58 -5579.476512  +1.78  -0.59
iter:   3 13:35:53 -5003.427326  +1.58  -0.61
iter:   4 13:37:14 -6070.397945  +1.37  -0.81
iter:   5 13:38:13 -4966.436017  -0.13  -0.54
iter:   6 13:39:05 -4651.838440  +0.67  -0.91
iter:   7 13:39:52 -4732.068995  -0.74  -1.32
iter:   8 13:40:36 -4671.093499  -1.25  -1.09
iter:   9 13:41:20 -4586.043714  -1.30  -1.25
iter:  10 13:42:17 -4583.555975  -2.17  -1.59
iter:  11 13:43:04 -4596.919172  -1.99  -1.59
iter:  12 13:43:50 -4594.087002  -2.76  -1.49
iter:  13 13:44:43 -4588.628706  -2.38  -1.52
iter:  14 13:45:34 -4584.521131  -2.47  -1.53
iter:  15 13:46:25 -4586.588392  -3.01  -1.57
iter:  16 13:47:27 -4583.719795  -2.27  -1.54
iter:  17 13:48:21 -4582.338334  -2.66  -1.57
iter:  18 13:49:11 -4584.424331  -1.88  -1.65
iter:  19 13:50:21 -4582.651407  -3.00  -1.72
iter:  20 13:51:23 -4581.384015  -2.35  -1.79
iter:  21 13:52:22 -4581.073311  -2.30  -1.85
iter:  22 13:53:29 -4580.656260  -2.86  -1.95
iter:  23 13:54:32 -4580.946443  -3.22  -2.18
iter:  24 13:55:30 -4580.620160c -2.99  -2.18
iter:  25 13:56:35 -4580.534087  -3.74  -2.34
iter:  26 13:57:39 -4580.530693c -4.47  -2.53
iter:  27 13:58:33 -4580.503525c -3.86  -2.56
iter:  28 13:59:33 -4580.469805c -3.92  -2.70
iter:  29 14:00:33 -4580.463299c -4.44  -2.89
iter:  30 14:01:33 -4580.459668c -5.14  -2.94
iter:  31 14:02:28 -4580.459163c -5.21  -2.98
iter:  32 14:03:26 -4580.459312c -4.79  -3.02
iter:  33 14:04:22 -4580.459209c -5.46  -3.22
iter:  34 14:05:19 -4580.458099c -5.76  -3.27
iter:  35 14:06:26 -4580.457831c -5.87  -3.48
iter:  36 14:07:17 -4580.457387c -5.97  -3.55
iter:  37 14:08:07 -4580.457340c -6.38  -3.63
iter:  38 14:08:53 -4580.457121c -6.78  -3.67
iter:  39 14:09:51 -4580.457182c -7.08  -3.76
iter:  40 14:10:40 -4580.457172c -6.44  -3.76
iter:  41 14:11:48 -4580.457141c -7.11  -3.83
iter:  42 14:12:41 -4580.457204c -6.89  -3.92
iter:  43 14:13:36 -4580.457143c -7.30  -4.08c
iter:  44 14:14:29 -4580.457169c -7.50c -4.24c

Converged after 44 iterations.

Dipole moment: (-22.434670, -22.334598, -0.211964) |e|*Ang

Energy contributions relative to reference atoms: (reference = -2606927.690960)

Kinetic:       +594.618126
Potential:     -594.028519
External:        +0.000000
XC:            -4579.804432
Entropy (-ST):   -0.871049
Local:           -0.806820
--------------------------
Free energy:   -4580.892694
Extrapolated:  -4580.457169

Showing only first 2 kpts
 Kpt  Band  Eigenvalues  Occupancy
  0   344      1.20669    1.25608
  0   345      1.25774    1.00667
  0   346      1.27006    0.94516
  0   347      1.32926    0.66280

  1   344      0.94363    1.91817
  1   345      1.19967    1.28857
  1   346      1.31819    0.71274
  1   347      1.44677    0.26548


Fermi level: 1.25908

No gap

Forces in eV/Ang:
  0 Cu   -0.03138   -0.27097    0.28103
  1 Cu    0.00783    0.28560    0.32674
  2 Cu    0.08245   -0.34881    0.28330
  3 Cu    0.26819    0.20527    0.42873
  4 Cu   -0.06063    0.02132   -0.08505
  5 Cu   -0.04682   -0.00687   -0.08307
  6 Cu   -0.00073   -0.05441   -0.07074
  7 Cu    0.04191   -0.06002    0.07637
  8 Cu    0.02421   -0.01029    0.03834
  9 Cu    0.00238    0.00437   -0.02368
 10 Cu    0.00066    0.00379   -0.02404
 11 Cu   -0.00002   -0.00240   -0.03260
 12 Cu   -0.00556    0.00254   -0.04562
 13 Cu   -0.00358   -0.00697    0.00864
 14 Cu    0.00820   -0.00978    0.00722
 15 Cu   -0.01069   -0.00493   -0.04633
 16 Cu   -0.03509    0.03019   -0.03632
 17 Cu    0.05873   -0.00191    0.10549
 18 Cu   -0.02193    0.03854    0.02797
 19 Cu   -0.03630   -0.06025    0.06695
 20 Cu    0.12223   -0.00256   -0.14391
 21 Cu    0.14007   -0.17517   -0.12774
 22 Cu   -0.04315   -0.11082    0.10675
 23 Cu    0.17434    0.08261   -0.22497
 24 Cu   -0.03348   -0.08571    0.11519
 25 Cu    0.15494   -0.08797    0.00662
 26 Cu   -0.01575    0.04979    0.00234
 27 Cu    0.04455    0.07755   -0.12820
 28 Cu    0.00265   -0.01404    0.05649
 29 Cu    0.00432   -0.01529    0.00608
 30 Cu   -0.00775    0.01093   -0.01350
 31 Cu    0.01766    0.01204   -0.02839
 32 Cu   -0.01459   -0.02499    0.15454
 33 Cu   -0.01309    0.05427   -0.00607
 34 Cu   -0.03912   -0.04705    0.09069
 35 Cu    0.06768    0.00148   -0.04927
 36 Cu   -0.01668    0.01158    0.03480
 37 Cu   -0.35980   -0.02043    0.61874
 38 Cu    0.02796   -0.02318    0.01596
 39 Cu   -0.00779    0.00892   -0.15613
 40 Cu   -0.02214   -0.01385    0.01949
 41 Cu   -0.00638    0.00541    0.03770
 42 Cu   -0.00836    0.00577   -0.01263
 43 Cu    0.01503    0.01080    0.05929
 44 Cu    0.08441   -0.00002    0.11704
 45 Cu   -0.00118   -0.05969    0.02040
 46 Cu   -0.15705    0.11473    0.03785
 47 Cu   -0.15501   -0.00992    0.04147
 48 Cu    0.01750    0.18122   -0.15413
 49 Cu   -0.03510    0.02750   -0.07756
 50 Cu   -0.00417    0.01322    0.00666
 51 Cu   -0.01543   -0.01115    0.02382
 52 Cu    0.03555   -0.00878    0.07918
 53 Cu   -0.17653    0.21683   -0.00261
 54 Cl    1.33370   -1.63784   -0.42002
 55 Cl    0.07136    1.56137   -0.00577
 56 Cl   -1.63066   -0.54993    0.07138
 57 Cl    0.39972   -0.68144   -1.36675
 58 Cl   -1.55343   -2.36888    0.14255
 59 Cl    0.96705    1.85650    0.01819
 60 Cl    0.34868   -0.55770    0.45923
 61 Cl   -1.74832    0.48561   -0.86715
 62 Cl    1.29175   -3.34804   -0.21964
 63 Cl   -0.90042    1.89687    0.06920
 64 Cl   -1.29687   -1.40242   -0.29077
 65 Cl    0.71867    4.91103    0.29920
 66 Cl    0.80714   -0.43100    0.21073
 67 Cl    1.17255    0.35529   -0.08745

System changes: positions 

Initializing position-dependent things.

Density initialized from wave functions
                                              
                                              
                                              
                                              
                     Cl     Cl    Cl          
                                              
                 Cl    Cl                     
            Cl          CCl   Cu     Cu       
                   Cu     Cu    Cu            
               Cu    Cu     Cu                
                    Cu     Cu    Cu           
                Cu    Cu    Cu                
           Cu    Cu     Cu                    
                Cu     Cu    Cu               
            Cu    Cu     Cu                   
       Cu     Cu    Cu  Cu    Cu     Cu       
                   Cu     Cu    Cu            
               Cu    Cu     Cu                
                    Cu     Cu    Cu           
                Cu    Cu    Cu                
           Cu    Cu     Cu                    
                Cu     Cu    Cu               
            Cu    Cu     Cu                   
       Cu     Cu   CCu          Cl            
                     Cl     Cl                
               Cl                             
         Cl           Cl                      
                                              
                                              
                                              
                                              

Positions:
   0 Cu     2.882900   -0.022628   10.044982    ( 0.0000,  0.0000,  0.0000)
   1 Cu     4.175802    2.218877    9.981167    ( 0.0000,  0.0000,  0.0000)
   2 Cu     0.272095   -0.008703   10.047352    ( 0.0000,  0.0000,  0.0000)
   3 Cu     1.573866    2.258417   10.058184    ( 0.0000,  0.0000,  0.0000)
   4 Cu     2.903396    3.014525   12.129310    ( 0.0000,  0.0000,  0.0000)
   5 Cu     1.585373    0.750921   12.152642    ( 0.0000,  0.0000,  0.0000)
   6 Cu     5.501571    3.019147   12.121390    ( 0.0000,  0.0000,  0.0000)
   7 Cu     4.205410    0.769736   12.123079    ( 0.0000,  0.0000,  0.0000)
   8 Cu     5.510783    1.510849   14.275102    ( 0.0000,  0.0000,  0.0000)
   9 Cu     6.817845    3.779377   14.272012    ( 0.0000,  0.0000,  0.0000)
  10 Cu     2.895683    1.507258   14.281878    ( 0.0000,  0.0000,  0.0000)
  11 Cu     4.204744    3.779000   14.274282    ( 0.0000,  0.0000,  0.0000)
  12 Cu     2.898099   -0.006103   16.437420    ( 0.0000,  0.0000,  0.0000)
  13 Cu     4.202684    2.263206   16.411596    ( 0.0000,  0.0000,  0.0000)
  14 Cu     0.271503   -0.002077   16.415305    ( 0.0000,  0.0000,  0.0000)
  15 Cu     1.579777    2.267522   16.416192    ( 0.0000,  0.0000,  0.0000)
  16 Cu     2.897362    3.020731   18.533420    ( 0.0000,  0.0000,  0.0000)
  17 Cu     1.576871    0.759501   18.539805    ( 0.0000,  0.0000,  0.0000)
  18 Cu     5.516579    3.018931   18.558963    ( 0.0000,  0.0000,  0.0000)
  19 Cu     4.217317    0.766903   18.568608    ( 0.0000,  0.0000,  0.0000)
  20 Cu     5.487374    1.472640   20.715540    ( 0.0000,  0.0000,  0.0000)
  21 Cu     6.846325    3.819140   20.712924    ( 0.0000,  0.0000,  0.0000)
  22 Cu     2.871031    1.508230   20.655790    ( 0.0000,  0.0000,  0.0000)
  23 Cu     4.186203    3.797404   20.638032    ( 0.0000,  0.0000,  0.0000)
  24 Cu     5.531751    4.555774    9.958745    ( 0.0000,  0.0000,  0.0000)
  25 Cu     2.874200    4.530513   10.029476    ( 0.0000,  0.0000,  0.0000)
  26 Cu     4.212494    5.278207   12.126635    ( 0.0000,  0.0000,  0.0000)
  27 Cu     6.801299    5.271720   12.110238    ( 0.0000,  0.0000,  0.0000)
  28 Cu     8.121993    6.047074   14.246474    ( 0.0000,  0.0000,  0.0000)
  29 Cu     5.516840    6.046056   14.278456    ( 0.0000,  0.0000,  0.0000)
  30 Cu     5.510798    4.532265   16.409727    ( 0.0000,  0.0000,  0.0000)
  31 Cu     2.889344    4.533410   16.405416    ( 0.0000,  0.0000,  0.0000)
  32 Cu     4.204202    5.282718   18.540739    ( 0.0000,  0.0000,  0.0000)
  33 Cu     6.813960    5.268006   18.565383    ( 0.0000,  0.0000,  0.0000)
  34 Cu     8.129781    6.043669   20.653706    ( 0.0000,  0.0000,  0.0000)
  35 Cu     5.504039    6.066043   20.646520    ( 0.0000,  0.0000,  0.0000)
  36 Cu     5.514968   -0.030449   10.039020    ( 0.0000,  0.0000,  0.0000)
  37 Cu     6.823828    2.241135   10.063248    ( 0.0000,  0.0000,  0.0000)
  38 Cu     8.122525    3.020238   12.150724    ( 0.0000,  0.0000,  0.0000)
  39 Cu     6.815087    0.756204   12.143399    ( 0.0000,  0.0000,  0.0000)
  40 Cu     8.131687    1.510002   14.279018    ( 0.0000,  0.0000,  0.0000)
  41 Cu     9.440560    3.775342   14.270153    ( 0.0000,  0.0000,  0.0000)
  42 Cu     5.503762   -0.004381   16.402737    ( 0.0000,  0.0000,  0.0000)
  43 Cu     6.817335    2.264617   16.410361    ( 0.0000,  0.0000,  0.0000)
  44 Cu     8.116509    3.026555   18.558335    ( 0.0000,  0.0000,  0.0000)
  45 Cu     6.806096    0.760815   18.554317    ( 0.0000,  0.0000,  0.0000)
  46 Cu     8.142240    1.505586   20.655570    ( 0.0000,  0.0000,  0.0000)
  47 Cu     9.447251    3.785053   20.647272    ( 0.0000,  0.0000,  0.0000)
  48 Cu     8.144046    4.529993   10.024114    ( 0.0000,  0.0000,  0.0000)
  49 Cu     9.442730    5.280659   12.145038    ( 0.0000,  0.0000,  0.0000)
  50 Cu    10.750229    6.044436   14.267131    ( 0.0000,  0.0000,  0.0000)
  51 Cu     8.124829    4.535624   16.404689    ( 0.0000,  0.0000,  0.0000)
  52 Cu     9.434042    5.289117   18.531299    ( 0.0000,  0.0000,  0.0000)
  53 Cu    10.741564    6.038947   20.646162    ( 0.0000,  0.0000,  0.0000)
  54 Cl     6.200779    2.598423   22.650337    ( 0.0000,  0.0000,  0.0000)
  55 Cl     4.855968    3.429650    8.014631    ( 0.0000,  0.0000,  0.0000)
  56 Cl    10.035486    4.885719   23.058807    ( 0.0000,  0.0000,  0.0000)
  57 Cl     0.932007    1.100334    7.573474    ( 0.0000,  0.0000,  0.0000)
  58 Cl     8.795162    5.647980    7.629064    ( 0.0000,  0.0000,  0.0000)
  59 Cl     2.116509    0.367389   23.097144    ( 0.0000,  0.0000,  0.0000)
  60 Cl     4.854279    4.907600   23.076263    ( 0.0000,  0.0000,  0.0000)
  61 Cl     6.106648    1.125053    7.593111    ( 0.0000,  0.0000,  0.0000)
  62 Cl     3.577782    5.755882    7.615374    ( 0.0000,  0.0000,  0.0000)
  63 Cl     7.341395    0.269012   23.099195    ( 0.0000,  0.0000,  0.0000)
  64 Cl     3.483508    2.561419   22.656773    ( 0.0000,  0.0000,  0.0000)
  65 Cl     7.825761    3.147176    8.011385    ( 0.0000,  0.0000,  0.0000)
  66 Cl     3.317892    1.009553    8.001113    ( 0.0000,  0.0000,  0.0000)
  67 Cl     7.533185    4.950164   23.090543    ( 0.0000,  0.0000,  0.0000)

Unit cell:
           periodic     x           y           z      points  spacing
  1. axis:    yes    7.851007    0.000000    0.000000    45     0.1511
  2. axis:    yes    3.925503    6.799171    0.000000    45     0.1511
  3. axis:    yes    0.000000    0.000000   30.683867   175     0.1753

  Lengths:   7.851007   7.851006  30.683867
  Angles:   90.000000  90.000000  60.000001

Effective grid spacing dv^(1/3) = 0.1666

     iter     time        total  log10-change:
                         energy  eigst   dens
iter:   1 14:16:20 -4583.628610  -1.79
iter:   2 14:17:41 -4586.329042  -2.63  -2.22
iter:   3 14:18:40 -4583.705693  -2.83  -1.87
iter:   4 14:19:35 -4584.014715  -3.03  -2.19
iter:   5 14:20:22 -4583.814824c -3.84  -2.10
iter:   6 14:21:07 -4582.997930  -3.94  -2.14
iter:   7 14:21:51 -4582.991446  -3.79  -2.54
iter:   8 14:22:35 -4582.899657c -4.12  -2.55
iter:   9 14:23:19 -4582.943756c -4.41  -2.92
iter:  10 14:24:04 -4582.886069c -4.55  -2.71
iter:  11 14:24:53 -4582.883176c -5.26  -3.03
iter:  12 14:25:53 -4582.885783c -4.96  -3.14
iter:  13 14:26:57 -4582.880530c -5.78  -3.14
iter:  14 14:28:01 -4582.878737c -5.50  -3.37
iter:  15 14:28:49 -4582.877984c -6.36  -3.41
iter:  16 14:29:36 -4582.877813c -5.88  -3.68
iter:  17 14:30:22 -4582.877544c -6.43  -3.82
iter:  18 14:31:15 -4582.877946c -6.51  -3.85
iter:  19 14:32:10 -4582.877502c -6.96  -4.02c
iter:  20 14:33:12 -4582.877736c -7.33  -4.33c
iter:  21 14:34:05 -4582.877647c -8.09c -4.40c

Converged after 21 iterations.

Dipole moment: (-32.375791, -23.189693, -0.105980) |e|*Ang

Energy contributions relative to reference atoms: (reference = -2606927.690960)

Kinetic:       +578.006421
Potential:     -583.034401
External:        +0.000000
XC:            -4576.660733
Entropy (-ST):   -0.912856
Local:           -0.732506
--------------------------
Free energy:   -4583.334075
Extrapolated:  -4582.877647

Showing only first 2 kpts
 Kpt  Band  Eigenvalues  Occupancy
  0   344      1.07866    1.32727
  0   345      1.12146    1.12512
  0   346      1.14847    0.99071
  0   347      1.20950    0.69554

  1   344      0.95940    1.73340
  1   345      1.11458    1.15882
  1   346      1.23137    0.59987
  1   347      1.30234    0.34806


Fermi level: 1.14661

No gap

Forces in eV/Ang:
  0 Cu   -0.02830   -0.13142    0.18579
  1 Cu    0.02372    0.23385    0.15442
  2 Cu    0.05297   -0.16375   -0.03411
  3 Cu    0.05609    0.07956    0.11103
  4 Cu   -0.04516    0.03026   -0.02979
  5 Cu   -0.03716   -0.00526   -0.03392
  6 Cu   -0.01817   -0.02175    0.00909
  7 Cu    0.03444   -0.04602    0.08192
  8 Cu    0.02033   -0.00683    0.02743
  9 Cu    0.00064    0.00459   -0.02647
 10 Cu   -0.00070    0.00462   -0.03253
 11 Cu   -0.00203   -0.00542   -0.03413
 12 Cu   -0.00737    0.00832   -0.03607
 13 Cu   -0.00488   -0.00566    0.00898
 14 Cu    0.00812   -0.00930    0.01421
 15 Cu   -0.00563   -0.00772   -0.03688
 16 Cu   -0.03119    0.01502   -0.01971
 17 Cu    0.04141    0.00369    0.09025
 18 Cu   -0.01118    0.02344    0.00429
 19 Cu   -0.02840   -0.04621    0.06140
 20 Cu    0.02605    0.00039   -0.17891
 21 Cu    0.05411   -0.12393   -0.07559
 22 Cu   -0.04590   -0.12277    0.00649
 23 Cu    0.14641    0.07217   -0.00964
 24 Cu   -0.01742   -0.07013    0.16013
 25 Cu    0.13849   -0.00188   -0.07335
 26 Cu   -0.00357    0.02550    0.03142
 27 Cu    0.03669    0.03955   -0.07263
 28 Cu    0.00395   -0.01483    0.04708
 29 Cu    0.00470   -0.01060    0.00004
 30 Cu   -0.01006    0.00800   -0.01041
 31 Cu    0.01569    0.01247   -0.01691
 32 Cu   -0.01353   -0.00392    0.10245
 33 Cu   -0.01032    0.04054   -0.00584
 34 Cu   -0.05269   -0.04292    0.08941
 35 Cu    0.01757   -0.02317    0.09461
 36 Cu    0.03164    0.03928   -0.13401
 37 Cu   -0.13015   -0.03580    0.05823
 38 Cu    0.02471    0.00244    0.04485
 39 Cu   -0.00522   -0.00998   -0.07375
 40 Cu   -0.01745   -0.01362    0.00967
 41 Cu   -0.00445    0.00727    0.02838
 42 Cu   -0.00506    0.00307   -0.00316
 43 Cu    0.01273    0.00984    0.05174
 44 Cu    0.07259   -0.00628    0.07959
 45 Cu    0.00390   -0.04449    0.00103
 46 Cu   -0.11392    0.03645    0.09098
 47 Cu   -0.05806    0.01415    0.07440
 48 Cu    0.00754    0.10304   -0.18043
 49 Cu   -0.03992    0.00869   -0.07832
 50 Cu   -0.00705    0.01029   -0.01025
 51 Cu   -0.01007   -0.01051    0.02736
 52 Cu    0.02580   -0.00557    0.06815
 53 Cu   -0.10316    0.15596    0.13224
 54 Cl    0.88192   -0.99114   -0.38021
 55 Cl   -0.02271    0.92179    0.08503
 56 Cl   -1.27602   -0.48245    0.04895
 57 Cl    0.19097   -0.68387   -0.93854
 58 Cl   -0.89883   -1.33713    0.10682
 59 Cl    0.62564    1.09446   -0.01891
 60 Cl    0.21437   -0.12533    0.23109
 61 Cl   -0.54304    0.08057   -0.34644
 62 Cl    0.67455   -1.51248    0.01627
 63 Cl   -0.66343    1.17978   -0.03266
 64 Cl   -0.63166   -0.89401   -0.24680
 65 Cl    0.34830    2.52072    0.50392
 66 Cl    0.10813    0.01421    0.28155
 67 Cl    0.95055    0.22882   -0.06648

System changes: positions 

Initializing position-dependent things.

Density initialized from wave functions
                                              
                                              
                                              
                                              
                      Cl    Cl    Cl          
                                              
                 Cl     Cl                    
            Cl          CCl   Cu     Cu       
                   Cu     Cu    Cu            
               Cu    Cu     Cu                
                    Cu     Cu    Cu           
                Cu    Cu    Cu                
           Cu    Cu     Cu                    
                Cu     Cu    Cu               
            Cu    Cu    CCu          Cu       
       Cu     Cu    Cu        Cu              
                   Cu     Cu    Cu            
               Cu    Cu     Cu                
                    Cu     Cu    Cu           
                Cu    Cu    Cu                
           Cu    Cu     Cu                    
                Cu     Cu    Cu               
            Cu    Cu     Cu                   
       Cu     Cu   CCu          Cl            
                     Cl     Cl                
               Cl                             
         Cl           Cl                      
                                              
                                              
                                              
                                              

Positions:
   0 Cu     2.881637   -0.033527   10.056286    ( 0.0000,  0.0000,  0.0000)
   1 Cu     4.176117    2.230365    9.994309    ( 0.0000,  0.0000,  0.0000)
   2 Cu     0.275411   -0.022733   10.058747    ( 0.0000,  0.0000,  0.0000)
   3 Cu     1.584654    2.266673   10.075428    ( 0.0000,  0.0000,  0.0000)
   4 Cu     2.900957    3.015382   12.125889    ( 0.0000,  0.0000,  0.0000)
   5 Cu     1.583489    0.750644   12.149301    ( 0.0000,  0.0000,  0.0000)
   6 Cu     5.501541    3.016959   12.118544    ( 0.0000,  0.0000,  0.0000)
   7 Cu     4.207096    0.767322   12.126151    ( 0.0000,  0.0000,  0.0000)
   8 Cu     5.511757    1.510436   14.276644    ( 0.0000,  0.0000,  0.0000)
   9 Cu     6.817941    3.779553   14.271060    ( 0.0000,  0.0000,  0.0000)
  10 Cu     2.895710    1.507411   14.280911    ( 0.0000,  0.0000,  0.0000)
  11 Cu     4.204744    3.778904   14.272971    ( 0.0000,  0.0000,  0.0000)
  12 Cu     2.897876   -0.006001   16.435585    ( 0.0000,  0.0000,  0.0000)
  13 Cu     4.202540    2.262925   16.411944    ( 0.0000,  0.0000,  0.0000)
  14 Cu     0.271833   -0.002470   16.415596    ( 0.0000,  0.0000,  0.0000)
  15 Cu     1.579347    2.267324   16.414329    ( 0.0000,  0.0000,  0.0000)
  16 Cu     2.895951    3.021945   18.531959    ( 0.0000,  0.0000,  0.0000)
  17 Cu     1.579234    0.759424   18.544048    ( 0.0000,  0.0000,  0.0000)
  18 Cu     5.515697    3.020482   18.560088    ( 0.0000,  0.0000,  0.0000)
  19 Cu     4.215857    0.764480   18.571301    ( 0.0000,  0.0000,  0.0000)
  20 Cu     5.492291    1.472537   20.709751    ( 0.0000,  0.0000,  0.0000)
  21 Cu     6.851959    3.812094   20.707786    ( 0.0000,  0.0000,  0.0000)
  22 Cu     2.869295    1.503773   20.660084    ( 0.0000,  0.0000,  0.0000)
  23 Cu     4.193216    3.800727   20.628983    ( 0.0000,  0.0000,  0.0000)
  24 Cu     5.530405    4.552327    9.963378    ( 0.0000,  0.0000,  0.0000)
  25 Cu     2.880432    4.526974   10.029743    ( 0.0000,  0.0000,  0.0000)
  26 Cu     4.211860    5.280210   12.126729    ( 0.0000,  0.0000,  0.0000)
  27 Cu     6.803091    5.274840   12.105081    ( 0.0000,  0.0000,  0.0000)
  28 Cu     8.122099    6.046510   14.248746    ( 0.0000,  0.0000,  0.0000)
  29 Cu     5.517014    6.045441   14.278700    ( 0.0000,  0.0000,  0.0000)
  30 Cu     5.510486    4.532704   16.409184    ( 0.0000,  0.0000,  0.0000)
  31 Cu     2.890054    4.533894   16.404274    ( 0.0000,  0.0000,  0.0000)
  32 Cu     4.203615    5.281713   18.546955    ( 0.0000,  0.0000,  0.0000)
  33 Cu     6.813434    5.270189   18.565139    ( 0.0000,  0.0000,  0.0000)
  34 Cu     8.128207    6.041776   20.657354    ( 0.0000,  0.0000,  0.0000)
  35 Cu     5.506762    6.066102   20.644538    ( 0.0000,  0.0000,  0.0000)
  36 Cu     5.514298   -0.029983   10.040420    ( 0.0000,  0.0000,  0.0000)
  37 Cu     6.809356    2.240314   10.088136    ( 0.0000,  0.0000,  0.0000)
  38 Cu     8.123650    3.019305   12.151366    ( 0.0000,  0.0000,  0.0000)
  39 Cu     6.814773    0.756563   12.137119    ( 0.0000,  0.0000,  0.0000)
  40 Cu     8.130797    1.509445   14.279802    ( 0.0000,  0.0000,  0.0000)
  41 Cu     9.440304    3.775560   14.271669    ( 0.0000,  0.0000,  0.0000)
  42 Cu     5.503426   -0.004149   16.402229    ( 0.0000,  0.0000,  0.0000)
  43 Cu     6.817939    2.265052   16.412746    ( 0.0000,  0.0000,  0.0000)
  44 Cu     8.119905    3.026554   18.563043    ( 0.0000,  0.0000,  0.0000)
  45 Cu     6.806048    0.758414   18.555138    ( 0.0000,  0.0000,  0.0000)
  46 Cu     8.135923    1.510201   20.657092    ( 0.0000,  0.0000,  0.0000)
  47 Cu     9.441016    3.784654   20.648940    ( 0.0000,  0.0000,  0.0000)
  48 Cu     8.144750    4.537283   10.017915    ( 0.0000,  0.0000,  0.0000)
  49 Cu     9.441318    5.281765   12.141919    ( 0.0000,  0.0000,  0.0000)
  50 Cu    10.750062    6.044967   14.267399    ( 0.0000,  0.0000,  0.0000)
  51 Cu     8.124209    4.535175   16.405647    ( 0.0000,  0.0000,  0.0000)
  52 Cu     9.435472    5.288764   18.534484    ( 0.0000,  0.0000,  0.0000)
  53 Cu    10.734464    6.047668   20.646057    ( 0.0000,  0.0000,  0.0000)
  54 Cl     6.254423    2.532545   22.633442    ( 0.0000,  0.0000,  0.0000)
  55 Cl     4.858839    3.492452    8.014399    ( 0.0000,  0.0000,  0.0000)
  56 Cl     9.969897    4.863599   23.061678    ( 0.0000,  0.0000,  0.0000)
  57 Cl     0.948085    1.072925    7.518500    ( 0.0000,  0.0000,  0.0000)
  58 Cl     8.732679    5.552698    7.634798    ( 0.0000,  0.0000,  0.0000)
  59 Cl     2.155406    0.442062   23.097875    ( 0.0000,  0.0000,  0.0000)
  60 Cl     4.868303    4.885168   23.094734    ( 0.0000,  0.0000,  0.0000)
  61 Cl     6.036326    1.144586    7.558232    ( 0.0000,  0.0000,  0.0000)
  62 Cl     3.629739    5.621215    7.606540    ( 0.0000,  0.0000,  0.0000)
  63 Cl     7.305177    0.345309   23.101979    ( 0.0000,  0.0000,  0.0000)
  64 Cl     3.431344    2.505010   22.645077    ( 0.0000,  0.0000,  0.0000)
  65 Cl     7.854667    3.344709    8.023420    ( 0.0000,  0.0000,  0.0000)
  66 Cl     3.350357    0.992217    8.009589    ( 0.0000,  0.0000,  0.0000)
  67 Cl     7.580348    4.964455   23.087025    ( 0.0000,  0.0000,  0.0000)

Unit cell:
           periodic     x           y           z      points  spacing
  1. axis:    yes    7.851007    0.000000    0.000000    45     0.1511
  2. axis:    yes    3.925503    6.799171    0.000000    45     0.1511
  3. axis:    yes    0.000000    0.000000   30.683867   175     0.1753

  Lengths:   7.851007   7.851006  30.683867
  Angles:   90.000000  90.000000  60.000001

Effective grid spacing dv^(1/3) = 0.1666

     iter     time        total  log10-change:
                         energy  eigst   dens
iter:   1 14:35:32 -4585.148185  -1.86
iter:   2 14:36:45 -4591.780048  -2.32  -2.10
iter:   3 14:37:49 -4584.947520  -2.54  -1.73
iter:   4 14:38:45 -4584.231743  -3.73  -2.15
iter:   5 14:39:38 -4584.129435  -4.45  -2.40
iter:   6 14:40:34 -4584.392926c -3.96  -2.47
iter:   7 14:41:31 -4584.290621c -3.90  -2.33
iter:   8 14:42:47 -4584.127934c -3.66  -2.37
iter:   9 14:43:34 -4584.137793c -4.14  -2.56
iter:  10 14:44:18 -4584.189620c -3.85  -2.54
iter:  11 14:45:03 -4584.010207c -4.62  -2.45
iter:  12 14:45:55 -4584.001062c -4.78  -2.95
iter:  13 14:46:38 -4583.994723c -5.42  -3.14
iter:  14 14:47:37 -4583.992786c -5.47  -3.33
iter:  15 14:48:50 -4583.993168c -6.13  -3.65
iter:  16 14:49:47 -4583.993223c -6.19  -3.69
iter:  17 14:50:38 -4583.992879c -6.26  -3.75
iter:  18 14:51:27 -4583.992806c -7.10  -3.95
iter:  19 14:52:16 -4583.992836c -7.10  -4.07c
iter:  20 14:53:13 -4583.992740c -7.19  -4.16c
iter:  21 14:54:06 -4583.992834c -7.13  -4.18c
iter:  22 14:54:56 -4583.992811c -7.70c -4.29c

Converged after 22 iterations.

Dipole moment: (-34.911529, -21.118979, -0.032880) |e|*Ang

Energy contributions relative to reference atoms: (reference = -2606927.690960)

Kinetic:       +572.207717
Potential:     -579.475083
External:        +0.000000
XC:            -4575.576576
Entropy (-ST):   -0.899018
Local:           -0.699360
--------------------------
Free energy:   -4584.442320
Extrapolated:  -4583.992811

Showing only first 2 kpts
 Kpt  Band  Eigenvalues  Occupancy
  0   344      1.07617    1.26110
  0   345      1.08366    1.22587
  0   346      1.13357    0.98027
  0   347      1.19429    0.68750

  1   344      0.98412    1.62154
  1   345      1.10913    1.10211
  1   346      1.19263    0.69498
  1   347      1.23369    0.52204


Fermi level: 1.12963

No gap

Forces in eV/Ang:
  0 Cu   -0.03453    0.00597    0.10090
  1 Cu    0.01954    0.13651    0.08853
  2 Cu    0.04026    0.01689   -0.23966
  3 Cu   -0.09644   -0.04353   -0.10019
  4 Cu   -0.02219    0.04212    0.03973
  5 Cu   -0.02442   -0.00446    0.02605
  6 Cu   -0.04309    0.01772    0.09726
  7 Cu    0.02230   -0.03276    0.09201
  8 Cu    0.01799   -0.00275    0.01599
  9 Cu   -0.00091    0.00428   -0.03176
 10 Cu   -0.00276    0.00575   -0.03771
 11 Cu   -0.00427   -0.00642   -0.03390
 12 Cu   -0.00751    0.01370   -0.02252
 13 Cu   -0.00441   -0.00462    0.01028
 14 Cu    0.00704   -0.00665    0.02462
 15 Cu   -0.00370   -0.01066   -0.02200
 16 Cu   -0.02601    0.00034   -0.00915
 17 Cu    0.02317    0.01150    0.07239
 18 Cu   -0.00071    0.00359   -0.02549
 19 Cu   -0.02113   -0.03210    0.05230
 20 Cu   -0.08130   -0.01539   -0.30387
 21 Cu   -0.01653   -0.06243   -0.10378
 22 Cu   -0.06012   -0.15364   -0.22082
 23 Cu    0.12056    0.07983    0.11493
 24 Cu    0.01511   -0.03320    0.30881
 25 Cu    0.10431    0.07715   -0.08068
 26 Cu    0.00608   -0.00221    0.06439
 27 Cu    0.03078    0.00157   -0.01373
 28 Cu    0.00416   -0.01739    0.03789
 29 Cu    0.00494   -0.00769   -0.00575
 30 Cu   -0.01163    0.00313   -0.00061
 31 Cu    0.01369    0.01332   -0.00118
 32 Cu   -0.01642    0.01936    0.04246
 33 Cu   -0.00151    0.02823   -0.01065
 34 Cu   -0.05668   -0.02771    0.03740
 35 Cu   -0.02952   -0.05052    0.16026
 36 Cu    0.07796    0.08514   -0.15674
 37 Cu    0.02781   -0.07796   -0.21964
 38 Cu    0.02078    0.02651    0.07844
 39 Cu    0.00106   -0.03783    0.02370
 40 Cu   -0.01446   -0.01303    0.00098
 41 Cu   -0.00197    0.00989    0.01719
 42 Cu   -0.00246    0.00089    0.01086
 43 Cu    0.01095    0.00910    0.05082
 44 Cu    0.06081   -0.01437    0.03883
 45 Cu    0.01144   -0.02505   -0.02297
 46 Cu   -0.04498   -0.03072    0.06774
 47 Cu    0.02908    0.02704    0.04494
 48 Cu    0.01118    0.09054    0.16442
 49 Cu   -0.04206   -0.00868   -0.07396
 50 Cu   -0.00887    0.00552   -0.02571
 51 Cu   -0.00547   -0.01036    0.03572
 52 Cu    0.01237   -0.00492    0.05528
 53 Cu   -0.04192    0.08986    0.16919
 54 Cl    0.42663   -0.33134   -0.20575
 55 Cl    0.02983    0.28578   -0.06025
 56 Cl   -1.06347   -0.43468    0.06525
 57 Cl    0.20861   -0.14739   -0.51466
 58 Cl   -0.31349   -0.24582   -0.25763
 59 Cl    0.30447    0.43446    0.04998
 60 Cl    0.09192    0.13245    0.02954
 61 Cl    0.18205   -0.32145   -0.07744
 62 Cl    0.15745   -0.64119    0.13236
 63 Cl   -0.41848    0.53843   -0.01879
 64 Cl   -0.00161   -0.33466   -0.05432
 65 Cl    0.09657    0.49527    0.16567
 66 Cl   -0.51810    0.38096    0.31192
 67 Cl    0.80185    0.10941    0.00922

System changes: positions 

Initializing position-dependent things.

Density initialized from wave functions
                                              
                                              
                                              
                                              
                      Cl     Cl   Cl          
                                              
                Cl      Cl                    
            Cl          CCl   Cu     Cu       
                   Cu     Cu    Cu            
               Cu    Cu     Cu                
                    Cu     Cu    Cu           
               Cu     Cu     Cu               
           Cu    Cu     Cu                    
                Cu     Cu    Cu               
            Cu    Cu    CCu   Cu     Cu       
       Cu     Cu    Cu                        
                   Cu     Cu    Cu            
               Cu   CCu     Cu   Cu           
                           Cu                 
                Cu    Cu     Cu               
           Cu    Cu     Cu   Cu               
                Cu     Cu                     
            Cu    Cu     Cu                   
       Cu     Cu   CCu         Cl             
                     Cl     Cl                
               Cl                             
          Cl          Cl                      
                                              
                                              
                                              
                                              

Positions:
   0 Cu     2.877400   -0.033577   10.069206    ( 0.0000,  0.0000,  0.0000)
   1 Cu     4.178487    2.247577   10.005872    ( 0.0000,  0.0000,  0.0000)
   2 Cu     0.280483   -0.021691   10.030752    ( 0.0000,  0.0000,  0.0000)
   3 Cu     1.573825    2.262024   10.064604    ( 0.0000,  0.0000,  0.0000)
   4 Cu     2.898119    3.020504   12.130423    ( 0.0000,  0.0000,  0.0000)
   5 Cu     1.580422    0.750089   12.152196    ( 0.0000,  0.0000,  0.0000)
   6 Cu     5.496361    3.018934   12.130031    ( 0.0000,  0.0000,  0.0000)
   7 Cu     4.209894    0.763215   12.137423    ( 0.0000,  0.0000,  0.0000)
   8 Cu     5.513988    1.510076   14.278674    ( 0.0000,  0.0000,  0.0000)
   9 Cu     6.817838    3.780080   14.267176    ( 0.0000,  0.0000,  0.0000)
  10 Cu     2.895380    1.508113   14.276312    ( 0.0000,  0.0000,  0.0000)
  11 Cu     4.204231    3.778125   14.268805    ( 0.0000,  0.0000,  0.0000)
  12 Cu     2.896958   -0.004347   16.432751    ( 0.0000,  0.0000,  0.0000)
  13 Cu     4.202000    2.262350   16.413203    ( 0.0000,  0.0000,  0.0000)
  14 Cu     0.272701   -0.003297   16.418575    ( 0.0000,  0.0000,  0.0000)
  15 Cu     1.578872    2.266028   16.411554    ( 0.0000,  0.0000,  0.0000)
  16 Cu     2.892726    3.022072   18.530757    ( 0.0000,  0.0000,  0.0000)
  17 Cu     1.582185    0.760801   18.553045    ( 0.0000,  0.0000,  0.0000)
  18 Cu     5.515549    3.021022   18.557105    ( 0.0000,  0.0000,  0.0000)
  19 Cu     4.213215    0.760452   18.577776    ( 0.0000,  0.0000,  0.0000)
  20 Cu     5.482868    1.470681   20.672830    ( 0.0000,  0.0000,  0.0000)
  21 Cu     6.850370    3.804096   20.694955    ( 0.0000,  0.0000,  0.0000)
  22 Cu     2.861949    1.484998   20.633852    ( 0.0000,  0.0000,  0.0000)
  23 Cu     4.208196    3.810553   20.642156    ( 0.0000,  0.0000,  0.0000)
  24 Cu     5.532125    4.548095   10.000811    ( 0.0000,  0.0000,  0.0000)
  25 Cu     2.893404    4.535995   10.020068    ( 0.0000,  0.0000,  0.0000)
  26 Cu     4.212547    5.280086   12.134472    ( 0.0000,  0.0000,  0.0000)
  27 Cu     6.806916    5.275248   12.103068    ( 0.0000,  0.0000,  0.0000)
  28 Cu     8.122606    6.044380   14.253459    ( 0.0000,  0.0000,  0.0000)
  29 Cu     5.517620    6.044473   14.278026    ( 0.0000,  0.0000,  0.0000)
  30 Cu     5.509067    4.533111   16.409072    ( 0.0000,  0.0000,  0.0000)
  31 Cu     2.891750    4.535529   16.404052    ( 0.0000,  0.0000,  0.0000)
  32 Cu     4.201601    5.283969   18.552495    ( 0.0000,  0.0000,  0.0000)
  33 Cu     6.813215    5.273735   18.563842    ( 0.0000,  0.0000,  0.0000)
  34 Cu     8.121286    6.038313   20.662104    ( 0.0000,  0.0000,  0.0000)
  35 Cu     5.503406    6.060036   20.663656    ( 0.0000,  0.0000,  0.0000)
  36 Cu     5.523618   -0.019720   10.021685    ( 0.0000,  0.0000,  0.0000)
  37 Cu     6.811679    2.230888   10.063496    ( 0.0000,  0.0000,  0.0000)
  38 Cu     8.126226    3.022425   12.160836    ( 0.0000,  0.0000,  0.0000)
  39 Cu     6.814879    0.752042   12.139524    ( 0.0000,  0.0000,  0.0000)
  40 Cu     8.128997    1.507840   14.279976    ( 0.0000,  0.0000,  0.0000)
  41 Cu     9.440049    3.776763   14.273842    ( 0.0000,  0.0000,  0.0000)
  42 Cu     5.503106   -0.004025   16.403498    ( 0.0000,  0.0000,  0.0000)
  43 Cu     6.819297    2.266176   16.419020    ( 0.0000,  0.0000,  0.0000)
  44 Cu     8.127451    3.024828   18.568040    ( 0.0000,  0.0000,  0.0000)
  45 Cu     6.807420    0.755235   18.552436    ( 0.0000,  0.0000,  0.0000)
  46 Cu     8.130074    1.506834   20.665339    ( 0.0000,  0.0000,  0.0000)
  47 Cu     9.444071    3.787875   20.654458    ( 0.0000,  0.0000,  0.0000)
  48 Cu     8.146143    4.548675   10.037235    ( 0.0000,  0.0000,  0.0000)
  49 Cu     9.436165    5.280801   12.132812    ( 0.0000,  0.0000,  0.0000)
  50 Cu    10.748985    6.045668   14.264329    ( 0.0000,  0.0000,  0.0000)
  51 Cu     8.123507    4.533899   16.410007    ( 0.0000,  0.0000,  0.0000)
  52 Cu     9.437059    5.288148   18.541351    ( 0.0000,  0.0000,  0.0000)
  53 Cu    10.728927    6.059080   20.666380    ( 0.0000,  0.0000,  0.0000)
  54 Cl     6.309464    2.488093   22.607530    ( 0.0000,  0.0000,  0.0000)
  55 Cl     4.862625    3.531214    8.007143    ( 0.0000,  0.0000,  0.0000)
  56 Cl     9.837492    4.809811   23.069720    ( 0.0000,  0.0000,  0.0000)
  57 Cl     0.974283    1.053285    7.452787    ( 0.0000,  0.0000,  0.0000)
  58 Cl     8.690611    5.516451    7.604244    ( 0.0000,  0.0000,  0.0000)
  59 Cl     2.194731    0.499525   23.103932    ( 0.0000,  0.0000,  0.0000)
  60 Cl     4.880336    4.899503   23.099584    ( 0.0000,  0.0000,  0.0000)
  61 Cl     6.053249    1.107336    7.546471    ( 0.0000,  0.0000,  0.0000)
  62 Cl     3.652317    5.534687    7.621822    ( 0.0000,  0.0000,  0.0000)
  63 Cl     7.252343    0.415379   23.099917    ( 0.0000,  0.0000,  0.0000)
  64 Cl     3.427478    2.460826   22.637727    ( 0.0000,  0.0000,  0.0000)
  65 Cl     7.868307    3.418131    8.044174    ( 0.0000,  0.0000,  0.0000)
  66 Cl     3.290389    1.036772    8.047666    ( 0.0000,  0.0000,  0.0000)
  67 Cl     7.680019    4.978607   23.087886    ( 0.0000,  0.0000,  0.0000)

Unit cell:
           periodic     x           y           z      points  spacing
  1. axis:    yes    7.851007    0.000000    0.000000    45     0.1511
  2. axis:    yes    3.925503    6.799171    0.000000    45     0.1511
  3. axis:    yes    0.000000    0.000000   30.683867   175     0.1753

  Lengths:   7.851007   7.851006  30.683867
  Angles:   90.000000  90.000000  60.000001

Effective grid spacing dv^(1/3) = 0.1666

     iter     time        total  log10-change:
                         energy  eigst   dens
iter:   1 14:56:22 -4587.820140  -1.90
iter:   2 14:57:16 -4599.748539  -1.88  -1.93
iter:   3 14:58:00 -4586.837044  -2.19  -1.60
iter:   4 14:58:53 -4585.008482  -3.29  -1.97
iter:   5 14:59:47 -4584.928437  -4.49  -2.38
iter:   6 15:00:33 -4585.058270c -3.86  -2.42
iter:   7 15:01:18 -4584.783395c -3.83  -2.31
iter:   8 15:02:04 -4584.761540c -3.38  -2.46
iter:   9 15:03:02 -4584.690015c -4.03  -2.50
iter:  10 15:03:54 -4584.728366c -3.88  -2.60
iter:  11 15:05:04 -4584.612760c -4.64  -2.56
iter:  12 15:06:01 -4584.582352c -4.31  -2.90
iter:  13 15:06:48 -4584.575907c -5.10  -3.15
iter:  14 15:07:32 -4584.575211c -5.58  -3.37
iter:  15 15:08:22 -4584.574395c -5.93  -3.51
iter:  16 15:09:12 -4584.575896c -5.49  -3.59
iter:  17 15:09:59 -4584.574316c -6.07  -3.60
iter:  18 15:11:05 -4584.574160c -6.51  -3.89
iter:  19 15:12:07 -4584.574113c -7.33  -3.95
iter:  20 15:13:13 -4584.574392c -6.75  -4.06c
iter:  21 15:14:09 -4584.574147c -7.12  -4.19c
iter:  22 15:15:00 -4584.574179c -8.16c -4.39c

Converged after 22 iterations.

Dipole moment: (-35.903432, -19.117049, 0.099814) |e|*Ang

Energy contributions relative to reference atoms: (reference = -2606927.690960)

Kinetic:       +571.173167
Potential:     -578.546939
External:        +0.000000
XC:            -4576.113147
Entropy (-ST):   -0.809225
Local:           -0.682648
--------------------------
Free energy:   -4584.978792
Extrapolated:  -4584.574179

Showing only first 2 kpts
 Kpt  Band  Eigenvalues  Occupancy
  0   344      1.15121    1.31108
  0   345      1.17271    1.21105
  0   346      1.20942    1.03068
  0   347      1.27128    0.72841

  1   344      0.85438    1.94741
  1   345      1.17869    1.18231
  1   346      1.28340    0.67323
  1   347      1.32969    0.48418


Fermi level: 1.21556

No gap

Forces in eV/Ang:
  0 Cu    0.02376    0.01363    0.11081
  1 Cu    0.04140    0.04731    0.12294
  2 Cu    0.03426    0.03860   -0.11906
  3 Cu   -0.06013    0.01575   -0.02982
  4 Cu   -0.03831    0.02569   -0.01878
  5 Cu   -0.03664    0.01069   -0.01319
  6 Cu    0.02450   -0.04255    0.03612
  7 Cu    0.02337   -0.01240    0.02466
  8 Cu    0.01313   -0.00265    0.03346
  9 Cu    0.00279    0.00288    0.01260
 10 Cu   -0.00330    0.00268   -0.01384
 11 Cu   -0.01105   -0.00090    0.02543
 12 Cu   -0.00477    0.01233   -0.00059
 13 Cu   -0.00585   -0.00267   -0.00310
 14 Cu    0.00695   -0.00029    0.01598
 15 Cu    0.00098   -0.00876   -0.00479
 16 Cu    0.02585    0.02542    0.00899
 17 Cu   -0.03142   -0.02682    0.01279
 18 Cu   -0.02308    0.01527   -0.05110
 19 Cu   -0.00994   -0.03342   -0.07681
 20 Cu   -0.11278    0.00744   -0.31349
 21 Cu   -0.04441   -0.04893   -0.25698
 22 Cu   -0.03787   -0.03167   -0.21303
 23 Cu    0.05217    0.05305    0.08085
 24 Cu    0.03016   -0.05113    0.28293
 25 Cu    0.00512    0.06690    0.00717
 26 Cu   -0.02120    0.03733    0.00903
 27 Cu    0.01832    0.01984    0.08742
 28 Cu    0.00680   -0.01836    0.03092
 29 Cu    0.00217   -0.00192    0.00779
 30 Cu   -0.00645   -0.00016    0.00105
 31 Cu    0.00399    0.00899    0.00760
 32 Cu   -0.01789    0.01097    0.05027
 33 Cu   -0.01614    0.01597    0.00536
 34 Cu   -0.05122    0.01649   -0.17520
 35 Cu   -0.04672   -0.06757    0.09939
 36 Cu    0.01433    0.10768   -0.08749
 37 Cu    0.00878   -0.06328   -0.08443
 38 Cu   -0.01677   -0.03618   -0.00118
 39 Cu    0.01848   -0.00154   -0.05413
 40 Cu   -0.00997   -0.00863    0.02251
 41 Cu   -0.00217    0.01638    0.02200
 42 Cu   -0.00087   -0.00643    0.02316
 43 Cu    0.01131    0.00885    0.02184
 44 Cu    0.03398   -0.02036    0.01694
 45 Cu    0.03102   -0.01322   -0.02755
 46 Cu    0.02442   -0.01846   -0.02975
 47 Cu    0.08029   -0.05118   -0.15964
 48 Cu    0.03579    0.07700    0.32574
 49 Cu    0.00891    0.01975   -0.05087
 50 Cu   -0.01214   -0.00741   -0.00773
 51 Cu    0.00043   -0.00596    0.03865
 52 Cu    0.01654    0.00012    0.06127
 53 Cu    0.00474    0.05906    0.01196
 54 Cl    0.02509    0.46044   -0.15009
 55 Cl    0.30226   -0.19073   -0.12523
 56 Cl   -0.53511   -0.52055    0.33702
 57 Cl    0.02521    0.00409   -0.63747
 58 Cl   -0.19305    0.33587   -0.48789
 59 Cl   -0.01188   -0.13525    0.21248
 60 Cl   -0.07266    0.11600   -0.07951
 61 Cl    0.15833   -0.28493    0.02408
 62 Cl   -0.17271   -0.37754    0.11240
 63 Cl   -0.06352   -0.34256    0.17966
 64 Cl    0.37459    0.24591    0.02686
 65 Cl   -0.06368   -0.06717    0.01560
 66 Cl   -0.13346    0.33801    0.33559
 67 Cl    0.37885    0.26176    0.40990

System changes: positions 

Initializing position-dependent things.

Density initialized from wave functions
                                              
                                              
                                              
                                              
                      Cl     Cl  Cl           
                                              
                 Cl     Cl                    
            Cl          CCl   Cu     Cu       
                   Cu     Cu    Cu            
              Cu     Cu     Cu                
                    Cu     Cu    Cu           
               Cu     Cu     Cu               
           Cu    Cu     Cu                    
                Cu     Cu    Cu               
            Cu    Cu    CCu   Cu     Cu       
       Cu     Cu    Cu                        
                   Cu     Cu    Cu            
               Cu   CCu    CCu   Cu           
                                              
               Cu     Cu     Cu               
           Cu   CCu    CCu   Cu               
                                              
            Cu    Cu     Cu                   
       Cu     Cu   CCul     Cl Cl             
                                              
               Cl     Cl                      
          Cl                                  
                                              
                                              
                                              
                                              

Positions:
   0 Cu     2.877158   -0.033205   10.092934    ( 0.0000,  0.0000,  0.0000)
   1 Cu     4.185186    2.266660   10.030324    ( 0.0000,  0.0000,  0.0000)
   2 Cu     0.288553   -0.017892    9.998046    ( 0.0000,  0.0000,  0.0000)
   3 Cu     1.560198    2.261608   10.055377    ( 0.0000,  0.0000,  0.0000)
   4 Cu     2.891224    3.027294   12.130941    ( 0.0000,  0.0000,  0.0000)
   5 Cu     1.573632    0.750961   12.152250    ( 0.0000,  0.0000,  0.0000)
   6 Cu     5.495689    3.014927   12.142120    ( 0.0000,  0.0000,  0.0000)
   7 Cu     4.214871    0.758564   12.148651    ( 0.0000,  0.0000,  0.0000)
   8 Cu     5.517248    1.509457   14.284315    ( 0.0000,  0.0000,  0.0000)
   9 Cu     6.818115    3.780816   14.265869    ( 0.0000,  0.0000,  0.0000)
  10 Cu     2.894753    1.508946   14.271308    ( 0.0000,  0.0000,  0.0000)
  11 Cu     4.202536    3.777459   14.268809    ( 0.0000,  0.0000,  0.0000)
  12 Cu     2.895712   -0.001687   16.430484    ( 0.0000,  0.0000,  0.0000)
  13 Cu     4.200897    2.261592   16.413750    ( 0.0000,  0.0000,  0.0000)
  14 Cu     0.274188   -0.003956   16.422625    ( 0.0000,  0.0000,  0.0000)
  15 Cu     1.578609    2.264040   16.408819    ( 0.0000,  0.0000,  0.0000)
  16 Cu     2.893430    3.025370   18.530835    ( 0.0000,  0.0000,  0.0000)
  17 Cu     1.580724    0.758516   18.561376    ( 0.0000,  0.0000,  0.0000)
  18 Cu     5.512556    3.023423   18.548968    ( 0.0000,  0.0000,  0.0000)
  19 Cu     4.209996    0.753317   18.573338    ( 0.0000,  0.0000,  0.0000)
  20 Cu     5.463198    1.470268   20.608422    ( 0.0000,  0.0000,  0.0000)
  21 Cu     6.844531    3.791778   20.654328    ( 0.0000,  0.0000,  0.0000)
  22 Cu     2.852028    1.467509   20.590219    ( 0.0000,  0.0000,  0.0000)
  23 Cu     4.225795    3.824226   20.660125    ( 0.0000,  0.0000,  0.0000)
  24 Cu     5.536822    4.538559   10.061754    ( 0.0000,  0.0000,  0.0000)
  25 Cu     2.903821    4.549997   10.014185    ( 0.0000,  0.0000,  0.0000)
  26 Cu     4.210395    5.284737   12.141000    ( 0.0000,  0.0000,  0.0000)
  27 Cu     6.812013    5.278286   12.111635    ( 0.0000,  0.0000,  0.0000)
  28 Cu     8.123795    6.040606   14.260756    ( 0.0000,  0.0000,  0.0000)
  29 Cu     5.518326    6.043493   14.278522    ( 0.0000,  0.0000,  0.0000)
  30 Cu     5.507257    4.533427   16.409059    ( 0.0000,  0.0000,  0.0000)
  31 Cu     2.893501    4.537816   16.404684    ( 0.0000,  0.0000,  0.0000)
  32 Cu     4.197961    5.286761   18.563157    ( 0.0000,  0.0000,  0.0000)
  33 Cu     6.811051    5.278397   18.563554    ( 0.0000,  0.0000,  0.0000)
  34 Cu     8.110069    6.037664   20.644678    ( 0.0000,  0.0000,  0.0000)
  35 Cu     5.495720    6.047627   20.688836    ( 0.0000,  0.0000,  0.0000)
  36 Cu     5.531803    0.000535    9.998145    ( 0.0000,  0.0000,  0.0000)
  37 Cu     6.812722    2.216544   10.038859    ( 0.0000,  0.0000,  0.0000)
  38 Cu     8.126132    3.020133   12.167403    ( 0.0000,  0.0000,  0.0000)
  39 Cu     6.817151    0.748729   12.133954    ( 0.0000,  0.0000,  0.0000)
  40 Cu     8.126429    1.505610   14.282907    ( 0.0000,  0.0000,  0.0000)
  41 Cu     9.439579    3.779611   14.278196    ( 0.0000,  0.0000,  0.0000)
  42 Cu     5.502739   -0.004689   16.407128    ( 0.0000,  0.0000,  0.0000)
  43 Cu     6.821685    2.268082   16.426327    ( 0.0000,  0.0000,  0.0000)
  44 Cu     8.137230    3.021159   18.574123    ( 0.0000,  0.0000,  0.0000)
  45 Cu     6.812124    0.751138   18.547308    ( 0.0000,  0.0000,  0.0000)
  46 Cu     8.128207    1.502770   20.667695    ( 0.0000,  0.0000,  0.0000)
  47 Cu     9.455204    3.783902   20.639223    ( 0.0000,  0.0000,  0.0000)
  48 Cu     8.151523    4.566791   10.089428    ( 0.0000,  0.0000,  0.0000)
  49 Cu     9.433470    5.282637   12.119929    ( 0.0000,  0.0000,  0.0000)
  50 Cu    10.746744    6.045325   14.261274    ( 0.0000,  0.0000,  0.0000)
  51 Cu     8.122997    4.532234   16.417841    ( 0.0000,  0.0000,  0.0000)
  52 Cu     9.440332    5.287690   18.553929    ( 0.0000,  0.0000,  0.0000)
  53 Cu    10.724812    6.075204   20.682053    ( 0.0000,  0.0000,  0.0000)
  54 Cl     6.357164    2.505091   22.569315    ( 0.0000,  0.0000,  0.0000)
  55 Cl     4.902128    3.542470    7.986900    ( 0.0000,  0.0000,  0.0000)
  56 Cl     9.672599    4.706706   23.116406    ( 0.0000,  0.0000,  0.0000)
  57 Cl     0.997515    1.036901    7.323463    ( 0.0000,  0.0000,  0.0000)
  58 Cl     8.630701    5.520801    7.524534    ( 0.0000,  0.0000,  0.0000)
  59 Cl     2.225273    0.531939   23.133934    ( 0.0000,  0.0000,  0.0000)
  60 Cl     4.881583    4.921013   23.095476    ( 0.0000,  0.0000,  0.0000)
  61 Cl     6.076240    1.049027    7.537173    ( 0.0000,  0.0000,  0.0000)
  62 Cl     3.653178    5.413122    7.645107    ( 0.0000,  0.0000,  0.0000)
  63 Cl     7.203528    0.431761   23.120497    ( 0.0000,  0.0000,  0.0000)
  64 Cl     3.464100    2.453165   22.634491    ( 0.0000,  0.0000,  0.0000)
  65 Cl     7.873456    3.483927    8.061970    ( 0.0000,  0.0000,  0.0000)
  66 Cl     3.235936    1.106863    8.115861    ( 0.0000,  0.0000,  0.0000)
  67 Cl     7.800999    5.021779   23.137618    ( 0.0000,  0.0000,  0.0000)

Unit cell:
           periodic     x           y           z      points  spacing
  1. axis:    yes    7.851007    0.000000    0.000000    45     0.1511
  2. axis:    yes    3.925503    6.799171    0.000000    45     0.1511
  3. axis:    yes    0.000000    0.000000   30.683867   175     0.1753

  Lengths:   7.851007   7.851006  30.683867
  Angles:   90.000000  90.000000  60.000001

Effective grid spacing dv^(1/3) = 0.1666

     iter     time        total  log10-change:
                         energy  eigst   dens
iter:   1 15:16:21 -4588.659942  -1.64
iter:   2 15:17:13 -4609.360526  -1.74  -1.87
iter:   3 15:18:15 -4586.425623  -2.02  -1.50
iter:   4 15:19:06 -4585.388080  -3.31  -2.09
iter:   5 15:19:57 -4585.303527  -3.70  -2.38
iter:   6 15:20:49 -4585.263378c -4.66  -2.37
iter:   7 15:21:50 -4585.974092  -2.96  -2.40
iter:   8 15:22:47 -4585.487197  -4.11  -2.12
iter:   9 15:23:45 -4585.018563  -3.66  -2.25
iter:  10 15:24:43 -4585.163533  -3.64  -2.68
iter:  11 15:25:38 -4584.973567c -4.34  -2.48
iter:  12 15:26:31 -4584.974238c -4.67  -2.90
iter:  13 15:27:25 -4584.971517c -4.68  -2.97
iter:  14 15:28:19 -4584.965572c -4.64  -3.15
iter:  15 15:29:12 -4584.961391c -5.09  -3.35
iter:  16 15:30:06 -4584.962937c -5.87  -3.58
iter:  17 15:31:00 -4584.961460c -6.57  -3.54
iter:  18 15:31:55 -4584.961768c -5.91  -3.68
iter:  19 15:32:59 -4584.960859c -6.06  -3.86
iter:  20 15:33:55 -4584.961157c -6.94  -3.79
iter:  21 15:34:47 -4584.961192c -7.04  -3.94
iter:  22 15:35:43 -4584.961280c -7.37  -4.07c
iter:  23 15:36:39 -4584.961395c -6.67  -4.14c
iter:  24 15:37:23 -4584.961262c -7.56c -4.45c

Converged after 24 iterations.

Dipole moment: (-36.144029, -19.060607, 0.232706) |e|*Ang

Energy contributions relative to reference atoms: (reference = -2606927.690960)

Kinetic:       +571.066129
Potential:     -577.976386
External:        +0.000000
XC:            -4576.998638
Entropy (-ST):   -0.767514
Local:           -0.668609
--------------------------
Free energy:   -4585.345019
Extrapolated:  -4584.961262

Showing only first 2 kpts
 Kpt  Band  Eigenvalues  Occupancy
  0   344      1.17315    1.37695
  0   345      1.20394    1.23791
  0   346      1.23535    1.08528
  0   347      1.30296    0.75267

  1   344      0.81713    1.97460
  1   345      1.19121    1.29697
  1   346      1.30894    0.72481
  1   347      1.40251    0.36468


Fermi level: 1.25245

No gap

Forces in eV/Ang:
  0 Cu    0.04580    0.01208    0.04474
  1 Cu    0.04359   -0.00957    0.12685
  2 Cu    0.03749    0.04580   -0.01610
  3 Cu   -0.00042    0.06841   -0.03456
  4 Cu   -0.02362    0.01662   -0.02262
  5 Cu   -0.03157    0.02266   -0.01459
  6 Cu    0.05080   -0.06777    0.03972
  7 Cu    0.01938    0.00967   -0.00221
  8 Cu    0.00582   -0.01019    0.02847
  9 Cu    0.00783   -0.00510    0.05387
 10 Cu   -0.00303   -0.00109   -0.00411
 11 Cu   -0.01222    0.00524    0.05049
 12 Cu   -0.00857    0.00008    0.00652
 13 Cu   -0.00855    0.00341   -0.03124
 14 Cu    0.00203   -0.00353   -0.00332
 15 Cu    0.01399   -0.00217    0.01650
 16 Cu    0.08009    0.02299   -0.02305
 17 Cu   -0.07931   -0.06636   -0.07284
 18 Cu   -0.04847    0.02724   -0.10837
 19 Cu   -0.01778   -0.02205   -0.26831
 20 Cu   -0.02071    0.05488   -0.03236
 21 Cu   -0.00235   -0.01279   -0.24025
 22 Cu    0.01346    0.10765    0.08442
 23 Cu   -0.05666   -0.00198    0.08434
 24 Cu    0.01831   -0.05969    0.11268
 25 Cu   -0.08181    0.05649    0.06887
 26 Cu   -0.03392    0.03898   -0.01389
 27 Cu   -0.01301    0.04563    0.24127
 28 Cu    0.01157   -0.00536    0.02866
 29 Cu   -0.01003    0.00670    0.01942
 30 Cu   -0.00056    0.00459    0.00447
 31 Cu   -0.00819    0.00516    0.02436
 32 Cu   -0.00394   -0.00366    0.03056
 33 Cu   -0.04475    0.00161   -0.02548
 34 Cu   -0.02993    0.00717   -0.25413
 35 Cu   -0.00613   -0.02586    0.09809
 36 Cu   -0.05799    0.07182   -0.04436
 37 Cu    0.03465    0.00107   -0.00629
 38 Cu   -0.03613   -0.08003   -0.02311
 39 Cu    0.02287    0.01396   -0.06524
 40 Cu   -0.00409   -0.00446    0.02815
 41 Cu   -0.00823    0.01044    0.00778
 42 Cu    0.01027   -0.01772    0.02079
 43 Cu    0.00539    0.00439   -0.01425
 44 Cu   -0.00153   -0.03162   -0.08196
 45 Cu    0.04062    0.01046   -0.04702
 46 Cu    0.03482    0.00482   -0.02141
 47 Cu    0.08526   -0.06130   -0.24007
 48 Cu    0.02365   -0.04861    0.16659
 49 Cu    0.07836    0.06359    0.05443
 50 Cu   -0.00880   -0.00764    0.00261
 51 Cu    0.00615    0.00539    0.03923
 52 Cu    0.02068    0.01332    0.01461
 53 Cu    0.00545    0.02454   -0.03595
 54 Cl   -0.04180    0.90058   -0.33119
 55 Cl    0.55959   -0.41015   -0.17099
 56 Cl    2.46065   -1.09452    0.50179
 57 Cl   -0.19157   -0.05074   -0.77013
 58 Cl   -0.03742    0.60395   -0.67234
 59 Cl   -0.39816   -0.45880    0.28192
 60 Cl   -0.14198    0.10232   -0.15839
 61 Cl    0.13466   -0.22507    0.03214
 62 Cl   -0.53477    0.03948    0.08924
 63 Cl    0.01494   -1.02923    0.27479
 64 Cl    0.52769    0.54612   -0.14786
 65 Cl    0.00733   -0.38903    0.11384
 66 Cl    0.02200    0.25127    0.50688
 67 Cl   -2.42172    0.98931    0.69725

System changes: positions 

Initializing position-dependent things.

Density initialized from wave functions
                                              
                                              
                                              
                                              
                             Cl               
                      Cl         Cl           
                                              
            Cl   Cl     CCl   Cu     Cu       
                   Cu     Cu    Cu            
                                              
              Cu    CCu    CCu   Cu           
               Cu     Cu     Cu               
                                              
           Cu   CCu    CCu   Cu               
            Cu    Cu     Cu                   
                        Cu    Cu     Cu       
       Cu     Cu   CCu    Cu    Cu            
                                              
               Cu   CCu    CCu   Cu           
               Cu     Cu    Cu                
                                              
           Cu   CCu    CCu    Cu              
            Cu    Cu     Cu                   
                                              
       Cu     Cu   CCul     Cl Cl             
               Cl                             
                      Cl                      
          Cl                                  
                                              
                                              
                                              
                                              

Positions:
   0 Cu     2.878172   -0.032257   10.121183    ( 0.0000,  0.0000,  0.0000)
   1 Cu     4.194673    2.289387   10.064234    ( 0.0000,  0.0000,  0.0000)
   2 Cu     0.300002   -0.011405    9.958000    ( 0.0000,  0.0000,  0.0000)
   3 Cu     1.544419    2.263996   10.040877    ( 0.0000,  0.0000,  0.0000)
   4 Cu     2.882713    3.036258   12.131817    ( 0.0000,  0.0000,  0.0000)
   5 Cu     1.564560    0.752969   12.152560    ( 0.0000,  0.0000,  0.0000)
   6 Cu     5.496289    3.007893   12.159794    ( 0.0000,  0.0000,  0.0000)
   7 Cu     4.221516    0.753579   12.162728    ( 0.0000,  0.0000,  0.0000)
   8 Cu     5.521306    1.508085   14.291770    ( 0.0000,  0.0000,  0.0000)
   9 Cu     6.818833    3.781300   14.266749    ( 0.0000,  0.0000,  0.0000)
  10 Cu     2.893889    1.509864   14.264882    ( 0.0000,  0.0000,  0.0000)
  11 Cu     4.200094    3.776928   14.270376    ( 0.0000,  0.0000,  0.0000)
  12 Cu     2.893696    0.001217   16.427788    ( 0.0000,  0.0000,  0.0000)
  13 Cu     4.199171    2.260950   16.412613    ( 0.0000,  0.0000,  0.0000)
  14 Cu     0.275925   -0.005113   16.427020    ( 0.0000,  0.0000,  0.0000)
  15 Cu     1.579141    2.261695   16.406462    ( 0.0000,  0.0000,  0.0000)
  16 Cu     2.898032    3.029687   18.528735    ( 0.0000,  0.0000,  0.0000)
  17 Cu     1.575456    0.752724   18.567223    ( 0.0000,  0.0000,  0.0000)
  18 Cu     5.506721    3.027505   18.533592    ( 0.0000,  0.0000,  0.0000)
  19 Cu     4.204950    0.744177   18.554237    ( 0.0000,  0.0000,  0.0000)
  20 Cu     5.441712    1.472876   20.537417    ( 0.0000,  0.0000,  0.0000)
  21 Cu     6.839029    3.777225   20.599114    ( 0.0000,  0.0000,  0.0000)
  22 Cu     2.841594    1.452229   20.549026    ( 0.0000,  0.0000,  0.0000)
  23 Cu     4.242988    3.839628   20.686291    ( 0.0000,  0.0000,  0.0000)
  24 Cu     5.542631    4.524780   10.135736    ( 0.0000,  0.0000,  0.0000)
  25 Cu     2.912571    4.569231   10.009792    ( 0.0000,  0.0000,  0.0000)
  26 Cu     4.206625    5.291144   12.148833    ( 0.0000,  0.0000,  0.0000)
  27 Cu     6.816990    5.284115   12.134193    ( 0.0000,  0.0000,  0.0000)
  28 Cu     8.125784    6.036219   14.270793    ( 0.0000,  0.0000,  0.0000)
  29 Cu     5.518480    6.042717   14.279958    ( 0.0000,  0.0000,  0.0000)
  30 Cu     5.505109    4.534191   16.409297    ( 0.0000,  0.0000,  0.0000)
  31 Cu     2.895129    4.540766   16.406757    ( 0.0000,  0.0000,  0.0000)
  32 Cu     4.193832    5.289770   18.576469    ( 0.0000,  0.0000,  0.0000)
  33 Cu     6.806113    5.283912   18.560966    ( 0.0000,  0.0000,  0.0000)
  34 Cu     8.095791    6.036027   20.615334    ( 0.0000,  0.0000,  0.0000)
  35 Cu     5.487620    6.033089   20.724572    ( 0.0000,  0.0000,  0.0000)
  36 Cu     5.538632    0.026486    9.967604    ( 0.0000,  0.0000,  0.0000)
  37 Cu     6.816800    2.200759   10.007716    ( 0.0000,  0.0000,  0.0000)
  38 Cu     8.124756    3.014174   12.175427    ( 0.0000,  0.0000,  0.0000)
  39 Cu     6.820602    0.744967   12.125973    ( 0.0000,  0.0000,  0.0000)
  40 Cu     8.123245    1.502767   14.287299    ( 0.0000,  0.0000,  0.0000)
  41 Cu     9.438512    3.783176   14.283250    ( 0.0000,  0.0000,  0.0000)
  42 Cu     5.503002   -0.006386   16.412056    ( 0.0000,  0.0000,  0.0000)
  43 Cu     6.824607    2.270439   16.434123    ( 0.0000,  0.0000,  0.0000)
  44 Cu     8.148490    3.015234   18.575710    ( 0.0000,  0.0000,  0.0000)
  45 Cu     6.819340    0.747076   18.538713    ( 0.0000,  0.0000,  0.0000)
  46 Cu     8.126344    1.498363   20.671904    ( 0.0000,  0.0000,  0.0000)
  47 Cu     9.471351    3.777938   20.612935    ( 0.0000,  0.0000,  0.0000)
  48 Cu     8.158132    4.583322   10.151656    ( 0.0000,  0.0000,  0.0000)
  49 Cu     9.434338    5.288081   12.109117    ( 0.0000,  0.0000,  0.0000)
  50 Cu    10.743839    6.044850   14.257598    ( 0.0000,  0.0000,  0.0000)
  51 Cu     8.122681    4.530678   16.428859    ( 0.0000,  0.0000,  0.0000)
  52 Cu     9.445140    5.287955   18.568241    ( 0.0000,  0.0000,  0.0000)
  53 Cu    10.719243    6.095214   20.701463    ( 0.0000,  0.0000,  0.0000)
  54 Cl     6.418600    2.559665   22.503609    ( 0.0000,  0.0000,  0.0000)
  55 Cl     4.974324    3.541847    7.955488    ( 0.0000,  0.0000,  0.0000)
  56 Cl     9.648404    4.523267   23.192334    ( 0.0000,  0.0000,  0.0000)
  57 Cl     1.015184    1.010834    7.135397    ( 0.0000,  0.0000,  0.0000)
  58 Cl     8.559769    5.548029    7.400103    ( 0.0000,  0.0000,  0.0000)
  59 Cl     2.240895    0.553699   23.180317    ( 0.0000,  0.0000,  0.0000)
  60 Cl     4.878488    4.951601   23.083724    ( 0.0000,  0.0000,  0.0000)
  61 Cl     6.110724    0.969845    7.526020    ( 0.0000,  0.0000,  0.0000)
  62 Cl     3.628029    5.276513    7.676854    ( 0.0000,  0.0000,  0.0000)
  63 Cl     7.140609    0.407015   23.155129    ( 0.0000,  0.0000,  0.0000)
  64 Cl     3.527461    2.463687   22.618145    ( 0.0000,  0.0000,  0.0000)
  65 Cl     7.884768    3.546477    8.093810    ( 0.0000,  0.0000,  0.0000)
  66 Cl     3.166730    1.200702    8.223251    ( 0.0000,  0.0000,  0.0000)
  67 Cl     7.777324    5.131509   23.226118    ( 0.0000,  0.0000,  0.0000)

Unit cell:
           periodic     x           y           z      points  spacing
  1. axis:    yes    7.851007    0.000000    0.000000    45     0.1511
  2. axis:    yes    3.925503    6.799171    0.000000    45     0.1511
  3. axis:    yes    0.000000    0.000000   30.683867   175     0.1753

  Lengths:   7.851007   7.851006  30.683867
  Angles:   90.000000  90.000000  60.000001

Effective grid spacing dv^(1/3) = 0.1666

     iter     time        total  log10-change:
                         energy  eigst   dens
iter:   1 15:38:40 -4587.661644  -1.48
iter:   2 15:39:26 -4587.783286  -2.29  -2.03
iter:   3 15:40:12 -4586.974659  -2.81  -2.02
iter:   4 15:41:13 -4586.200977  -3.57  -2.17
iter:   5 15:42:09 -4586.811741  -3.15  -2.40
iter:   6 15:43:11 -4586.126811  -3.94  -2.13
iter:   7 15:44:02 -4585.939147  -3.45  -2.42
iter:   8 15:45:01 -4585.958336c -4.05  -2.78
iter:   9 15:45:59 -4585.952001c -4.15  -2.72
iter:  10 15:46:54 -4585.932899c -4.59  -2.73
iter:  11 15:47:46 -4585.915775c -4.51  -2.86
iter:  12 15:48:38 -4585.966418c -4.48  -3.14
iter:  13 15:49:31 -4585.912027c -4.52  -2.79
iter:  14 15:50:22 -4585.910542c -5.72  -3.42
iter:  15 15:51:14 -4585.909390c -5.49  -3.51
iter:  16 15:52:21 -4585.910186c -6.13  -3.74
iter:  17 15:53:23 -4585.909362c -6.55  -3.79
iter:  18 15:54:34 -4585.909723c -6.66  -3.88
iter:  19 15:55:36 -4585.909430c -6.01  -3.96
iter:  20 15:56:33 -4585.909491c -6.95  -4.27c
iter:  21 15:57:26 -4585.909382c -7.13  -4.34c
iter:  22 15:58:11 -4585.909525c -7.31  -4.40c
iter:  23 15:58:56 -4585.909472c -7.83c -4.43c

Converged after 23 iterations.

Dipole moment: (-34.976020, -20.698921, 0.221081) |e|*Ang

Energy contributions relative to reference atoms: (reference = -2606927.690960)

Kinetic:       +561.530194
Potential:     -571.264647
External:        +0.000000
XC:            -4575.147809
Entropy (-ST):   -0.769754
Local:           -0.642334
--------------------------
Free energy:   -4586.294349
Extrapolated:  -4585.909472

Showing only first 2 kpts
 Kpt  Band  Eigenvalues  Occupancy
  0   344      1.01609    1.52483
  0   345      1.07764    1.26849
  0   346      1.12601    1.03337
  0   347      1.18690    0.73538

  1   344      0.71749    1.96902
  1   345      1.03963    1.43437
  1   346      1.16396    0.84490
  1   347      1.24107    0.50558


Fermi level: 1.13269

No gap

Forces in eV/Ang:
  0 Cu    0.05587   -0.06598    0.00806
  1 Cu    0.08835   -0.03660    0.13441
  2 Cu    0.02729    0.02799    0.06964
  3 Cu    0.07826    0.10862   -0.06547
  4 Cu   -0.01436    0.00528   -0.01283
  5 Cu   -0.01858    0.03413   -0.01037
  6 Cu    0.07468   -0.08945    0.05669
  7 Cu    0.01257    0.02655   -0.03613
  8 Cu   -0.00459   -0.01629    0.02015
  9 Cu    0.01182   -0.01849    0.10807
 10 Cu   -0.00223   -0.00453    0.00753
 11 Cu   -0.01077    0.01197    0.07279
 12 Cu   -0.02251   -0.01580   -0.01063
 13 Cu   -0.01271    0.01085   -0.06692
 14 Cu   -0.00236   -0.00888   -0.03037
 15 Cu    0.03019    0.00373    0.02265
 16 Cu    0.11241    0.01079   -0.04568
 17 Cu   -0.11491   -0.09580   -0.13453
 18 Cu   -0.06561    0.04859   -0.16010
 19 Cu   -0.03384   -0.01719   -0.39978
 20 Cu    0.08574    0.08254    0.34334
 21 Cu    0.09210    0.12032   -0.09943
 22 Cu    0.06757    0.20224    0.39014
 23 Cu   -0.15590   -0.06806    0.06230
 24 Cu    0.00869   -0.03005   -0.14145
 25 Cu   -0.14198    0.04443    0.11026
 26 Cu   -0.04366    0.03499   -0.03250
 27 Cu   -0.03507    0.07624    0.36596
 28 Cu    0.01767    0.01379    0.03703
 29 Cu   -0.03069    0.01865    0.03881
 30 Cu    0.00450    0.01551   -0.00279
 31 Cu   -0.02223   -0.00021    0.02863
 32 Cu    0.01129   -0.02083    0.03588
 33 Cu   -0.07329   -0.01512   -0.06587
 34 Cu    0.05367   -0.08270    0.04405
 35 Cu    0.03351    0.06589    0.10196
 36 Cu   -0.13467    0.00379   -0.03042
 37 Cu    0.05826    0.09198    0.04556
 38 Cu   -0.04183   -0.10893   -0.05217
 39 Cu    0.01454    0.03257   -0.08392
 40 Cu    0.00387   -0.00224    0.03333
 41 Cu   -0.01462   -0.00150   -0.00019
 42 Cu    0.02872   -0.02764   -0.01125
 43 Cu   -0.00260   -0.00618   -0.06278
 44 Cu   -0.02169   -0.03810   -0.19364
 45 Cu    0.03323    0.02150   -0.04247
 46 Cu    0.01091    0.01980    0.08299
 47 Cu    0.00947    0.03997    0.06874
 48 Cu   -0.01790   -0.16982   -0.15225
 49 Cu    0.15839    0.11265    0.19402
 50 Cu    0.00255   -0.00229    0.02688
 51 Cu    0.01492    0.01760    0.01987
 52 Cu    0.02360    0.03140   -0.05547
 53 Cu   -0.03410   -0.03026    0.09848
 54 Cl    0.20975    0.73898   -0.46255
 55 Cl    0.68765   -0.40675   -0.26585
 56 Cl    0.83902   -1.06587    0.23694
 57 Cl   -0.26465   -0.10035   -0.86472
 58 Cl    0.05101    0.73451   -0.71446
 59 Cl   -0.66472   -0.33922    0.19889
 60 Cl   -0.15010    0.09241   -0.20070
 61 Cl   -0.02215   -0.10328    0.06313
 62 Cl   -0.79919    0.34356    0.07976
 63 Cl   -0.17199   -1.10992    0.12777
 64 Cl    0.50124    0.36211   -0.26609
 65 Cl    0.20792   -0.70040    0.31086
 66 Cl    0.06476    0.15654    0.63387
 67 Cl   -0.63510    1.04380    0.52031

System changes: positions 

Initializing position-dependent things.

Density initialized from wave functions
                                              
                                              
                                              
                                              
                             Cl               
                      Cl         Cl           
                                              
            Cl   Cl     Cl    Cu     Cu       
                   Cu     Cu    Cu            
                                              
              Cu    CCu    CCu   Cu           
                Cu    Cu     Cu               
                                              
           Cu   CCu    CCu   Cu               
            Cu    Cu     Cu                   
                        Cu    Cu     Cu       
       Cu     Cu   CCu    Cu    Cu            
               Cu    Cu     Cu                
                    Cu     Cu    Cu           
               Cu     Cu    Cu                
                 Cu                           
           Cu   Cu     CCu    Cu              
            Cu    Cu     Cu                   
              Cu  Cl                          
       Cu           Cul     Cl Cl             
               Cl                             
                      Cl                      
          Cl                                  
                                              
                                              
                                              
                                              

Positions:
   0 Cu     2.879185   -0.031309   10.149433    ( 0.0000,  0.0000,  0.0000)
   1 Cu     4.204160    2.312114   10.098144    ( 0.0000,  0.0000,  0.0000)
   2 Cu     0.311450   -0.004918    9.917954    ( 0.0000,  0.0000,  0.0000)
   3 Cu     1.528639    2.266384   10.026377    ( 0.0000,  0.0000,  0.0000)
   4 Cu     2.874202    3.045221   12.132693    ( 0.0000,  0.0000,  0.0000)
   5 Cu     1.555488    0.754976   12.152870    ( 0.0000,  0.0000,  0.0000)
   6 Cu     5.496888    3.000859   12.177469    ( 0.0000,  0.0000,  0.0000)
[...]
 42 Cu   -0.01913    0.00541    0.00370
 43 Cu    0.00761    0.00470   -0.01466
 44 Cu   -0.00927    0.00348   -0.01558
 45 Cu    0.02805   -0.01120   -0.01246
 46 Cu   -0.01487   -0.00066   -0.00178
 47 Cu   -0.03400   -0.01816   -0.02050
 48 Cu   -0.01706    0.00686    0.00265
 49 Cu   -0.00151   -0.01157    0.00043
 50 Cu   -0.00018   -0.00473    0.01418
 51 Cu    0.01224    0.00975    0.00140
 52 Cu   -0.00507    0.00263   -0.00200
 53 Cu   -0.01078   -0.02287    0.01428
 54 Cl    0.01393    0.00349    0.02146
 55 Cl    0.00955    0.01209   -0.01000
 56 Cl   -0.01141   -0.01492   -0.01123
 57 Cl   -0.00744   -0.02413    0.00543
 58 Cl    0.02406    0.01057    0.01143
 59 Cl   -0.00805   -0.00047   -0.00419
 60 Cl   -0.00126   -0.01395   -0.00661
 61 Cl   -0.00007   -0.01036   -0.01633
 62 Cl    0.01765    0.01716    0.02138
 63 Cl   -0.00210   -0.00466   -0.03931
 64 Cl   -0.01299    0.01100    0.00592
 65 Cl    0.00179   -0.00208   -0.00478
 66 Cl   -0.01079   -0.00516   -0.00339
 67 Cl    0.02207    0.00592    0.00828

System changes: positions 

Initializing position-dependent things.

Density initialized from wave functions
                                               
                                               
                                               
                                               
                              Cl               
                                   Cl          
                                               
            Cl                                 
                         Cl     Cu             
                                               
                   Cl    Cu Cl Cu     Cu       
                    Cu     Cu                  
                                               
               Cu    Clu    CCu   Cu           
                             Cu                
                Cu     Cu                      
            Cu   CCu    CCu   Cu               
                                               
             Cu    Cu    CCu   Cu     Cu       
        Cu     Cu   CCu    Cu    Cu            
                                               
               Cu    CCu   CCu    Cu           
                             Cu                
                Cu     Cu                      
            Cu    Cu    CCu   Cu               
                                               
             Cu    Cu     Cu                   
        Cu    Cu     CuCl       Cl             
                                               
                Cl Cu    Cl                    
                              Cl               
                Cl                             
                                               
            Cl                                 
                                               
                                               
                                               
                                               
                                               

Positions:
   0 Cu     2.837747    0.009649   10.078965    ( 0.0000,  0.0000,  0.0000)
   1 Cu     4.204885    2.331053    9.958873    ( 0.0000,  0.0000,  0.0000)
   2 Cu     0.273981    0.041277   10.069535    ( 0.0000,  0.0000,  0.0000)
   3 Cu     1.587737    2.375394    9.936871    ( 0.0000,  0.0000,  0.0000)
   4 Cu     2.875375    3.103092   12.091988    ( 0.0000,  0.0000,  0.0000)
   5 Cu     1.545558    0.850735   12.124163    ( 0.0000,  0.0000,  0.0000)
   6 Cu     5.475144    3.077030   12.112458    ( 0.0000,  0.0000,  0.0000)
   7 Cu     4.189721    0.824603   12.120660    ( 0.0000,  0.0000,  0.0000)
   8 Cu     5.479638    1.590092   14.284186    ( 0.0000,  0.0000,  0.0000)
   9 Cu     6.782992    3.850642   14.277937    ( 0.0000,  0.0000,  0.0000)
  10 Cu     2.859170    1.584387   14.266332    ( 0.0000,  0.0000,  0.0000)
  11 Cu     4.174124    3.848961   14.265994    ( 0.0000,  0.0000,  0.0000)
  12 Cu     2.841246    0.076094   16.419624    ( 0.0000,  0.0000,  0.0000)
  13 Cu     4.159839    2.342680   16.425799    ( 0.0000,  0.0000,  0.0000)
  14 Cu     0.232324    0.076552   16.431490    ( 0.0000,  0.0000,  0.0000)
  15 Cu     1.538928    2.346355   16.438298    ( 0.0000,  0.0000,  0.0000)
  16 Cu     2.847062    3.132398   18.583223    ( 0.0000,  0.0000,  0.0000)
  17 Cu     1.531308    0.853887   18.563810    ( 0.0000,  0.0000,  0.0000)
  18 Cu     5.461509    3.111192   18.604872    ( 0.0000,  0.0000,  0.0000)
  19 Cu     4.156315    0.822021   18.558278    ( 0.0000,  0.0000,  0.0000)
  20 Cu     5.480618    1.577541   20.705773    ( 0.0000,  0.0000,  0.0000)
  21 Cu     6.796420    3.847056   20.719143    ( 0.0000,  0.0000,  0.0000)
  22 Cu     2.812075    1.584406   20.618857    ( 0.0000,  0.0000,  0.0000)
  23 Cu     4.122691    3.884812   20.770445    ( 0.0000,  0.0000,  0.0000)
  24 Cu     5.419756    4.584362   10.054660    ( 0.0000,  0.0000,  0.0000)
  25 Cu     3.618873    4.499273    6.320282    ( 0.0000,  0.0000,  0.0000)
  26 Cu     4.154857    5.355857   12.136110    ( 0.0000,  0.0000,  0.0000)
  27 Cu     6.773489    5.356232   12.148800    ( 0.0000,  0.0000,  0.0000)
  28 Cu     8.082908    6.125538   14.288602    ( 0.0000,  0.0000,  0.0000)
  29 Cu     5.476267    6.124584   14.276486    ( 0.0000,  0.0000,  0.0000)
  30 Cu     5.465653    4.607307   16.420391    ( 0.0000,  0.0000,  0.0000)
  31 Cu     2.850196    4.604727   16.396861    ( 0.0000,  0.0000,  0.0000)
  32 Cu     4.156928    5.347207   18.547978    ( 0.0000,  0.0000,  0.0000)
  33 Cu     6.797277    5.362297   18.546829    ( 0.0000,  0.0000,  0.0000)
  34 Cu     8.117652    6.063093   20.661575    ( 0.0000,  0.0000,  0.0000)
  35 Cu     5.468905    6.171245   20.601187    ( 0.0000,  0.0000,  0.0000)
  36 Cu     5.488463   -0.008392   10.011400    ( 0.0000,  0.0000,  0.0000)
  37 Cu     6.808099    2.322370   10.026726    ( 0.0000,  0.0000,  0.0000)
  38 Cu     8.108746    3.071923   12.151394    ( 0.0000,  0.0000,  0.0000)
  39 Cu     6.786269    0.818565   12.157509    ( 0.0000,  0.0000,  0.0000)
  40 Cu     8.092054    1.587817   14.301232    ( 0.0000,  0.0000,  0.0000)
  41 Cu     9.406969    3.848072   14.268047    ( 0.0000,  0.0000,  0.0000)
  42 Cu     5.473526    0.084565   16.414279    ( 0.0000,  0.0000,  0.0000)
  43 Cu     6.773523    2.348569   16.443053    ( 0.0000,  0.0000,  0.0000)
  44 Cu     8.094863    3.132272   18.614809    ( 0.0000,  0.0000,  0.0000)
  45 Cu     6.773813    0.861544   18.580664    ( 0.0000,  0.0000,  0.0000)
  46 Cu     8.098763    1.635321   20.687123    ( 0.0000,  0.0000,  0.0000)
  47 Cu     9.161772    3.091613   24.307780    ( 0.0000,  0.0000,  0.0000)
  48 Cu     8.064090    4.612761   10.125765    ( 0.0000,  0.0000,  0.0000)
  49 Cu     9.415806    5.365300   12.159002    ( 0.0000,  0.0000,  0.0000)
  50 Cu    10.716796    6.121159   14.283728    ( 0.0000,  0.0000,  0.0000)
  51 Cu     8.084166    4.600484   16.411205    ( 0.0000,  0.0000,  0.0000)
  52 Cu     9.396549    5.360435   18.521430    ( 0.0000,  0.0000,  0.0000)
  53 Cu    10.736663    6.126078   20.594002    ( 0.0000,  0.0000,  0.0000)
  54 Cl     7.894912    1.873954   22.962922    ( 0.0000,  0.0000,  0.0000)
  55 Cl     5.220707    4.165931    7.812580    ( 0.0000,  0.0000,  0.0000)
  56 Cl    10.176269    4.323860   25.714977    ( 0.0000,  0.0000,  0.0000)
  57 Cl     1.718598   -0.075379    4.978845    ( 0.0000,  0.0000,  0.0000)
  58 Cl     7.503043    5.832242    4.994165    ( 0.0000,  0.0000,  0.0000)
  59 Cl     1.965942    0.157583   25.892604    ( 0.0000,  0.0000,  0.0000)
  60 Cl     5.887229    5.063374   22.548392    ( 0.0000,  0.0000,  0.0000)
  61 Cl     6.900391    0.691135    8.203900    ( 0.0000,  0.0000,  0.0000)
  62 Cl     2.214874    4.537177    4.724823    ( 0.0000,  0.0000,  0.0000)
  63 Cl     5.627369   -1.330918   22.393842    ( 0.0000,  0.0000,  0.0000)
  64 Cl     3.971937    2.147762   22.513751    ( 0.0000,  0.0000,  0.0000)
  65 Cl     9.091152    3.988985    8.241516    ( 0.0000,  0.0000,  0.0000)
  66 Cl     3.240407    1.138793    8.148687    ( 0.0000,  0.0000,  0.0000)
  67 Cl     7.677717    5.944222   25.809017    ( 0.0000,  0.0000,  0.0000)

Unit cell:
           periodic     x           y           z      points  spacing
  1. axis:    yes    7.851007    0.000000    0.000000    45     0.1511
  2. axis:    yes    3.925503    6.799171    0.000000    45     0.1511
  3. axis:    yes    0.000000    0.000000   30.683867   175     0.1753

  Lengths:   7.851007   7.851006  30.683867
  Angles:   90.000000  90.000000  60.000001

Effective grid spacing dv^(1/3) = 0.1666

     iter     time        total  log10-change:
                         energy  eigst   dens
iter:   1 19:46:52 -4598.431042  -3.58
iter:   2 19:47:43 -4598.420535  -4.65  -3.15
iter:   3 19:48:35 -4598.426378c -5.39  -3.30
iter:   4 19:49:21 -4598.434029c -5.38  -3.40
iter:   5 19:50:15 -4598.421565c -5.92  -3.56
iter:   6 19:51:05 -4598.430898c -5.42  -3.61
iter:   7 19:51:52 -4598.429191c -5.89  -3.69
iter:   8 19:52:41 -4598.428784c -6.91  -3.77
iter:   9 19:53:28 -4598.425637c -5.94  -3.91
iter:  10 19:54:20 -4598.423086c -6.56  -4.12c
iter:  11 19:55:11 -4598.426714c -6.36  -4.18c
iter:  12 19:56:00 -4598.424000c -7.02  -4.30c
iter:  13 19:56:56 -4598.425929c -7.00  -4.48c
iter:  14 19:57:42 -4598.425274c -7.61c -4.64c

Converged after 14 iterations.

Dipole moment: (22.818656, -4.537216, 0.035906) |e|*Ang

Energy contributions relative to reference atoms: (reference = -2606927.690960)

Kinetic:       +503.166848
Potential:     -537.166560
External:        +0.000000
XC:            -4563.352424
Entropy (-ST):   -0.678409
Local:           -0.733933
--------------------------
Free energy:   -4598.764479
Extrapolated:  -4598.425274

Showing only first 2 kpts
 Kpt  Band  Eigenvalues  Occupancy
  0   344      0.50178    1.46708
  0   345      0.63969    0.81879
  0   346      0.70106    0.54573
  0   347      0.84452    0.16412

  1   344      0.31274    1.89600
  1   345      0.37147    1.82035
  1   346      0.40161    1.76461
  1   347      0.51080    1.43110


Fermi level: 0.60305

No gap

Forces in eV/Ang:
  0 Cu    0.00998    0.00751   -0.00139
  1 Cu   -0.00380    0.00290   -0.00039
  2 Cu   -0.00932    0.00098   -0.00204
  3 Cu    0.00205    0.00092   -0.00896
  4 Cu    0.00305    0.00744    0.00823
  5 Cu    0.00915    0.00042   -0.00696
  6 Cu   -0.00937    0.00351    0.00192
  7 Cu   -0.00699   -0.00335    0.01425
  8 Cu   -0.00272    0.00715    0.00662
  9 Cu    0.00117   -0.00470   -0.00562
 10 Cu    0.00343   -0.00139    0.00799
 11 Cu   -0.00253    0.00875    0.01024
 12 Cu   -0.00281    0.00711   -0.00296
 13 Cu    0.00060    0.00094    0.00742
 14 Cu    0.00068    0.00151   -0.00664
 15 Cu    0.00322    0.00669   -0.01351
 16 Cu   -0.00271   -0.00361    0.00539
 17 Cu    0.00474    0.00871   -0.00446
 18 Cu    0.01000   -0.00121   -0.01311
 19 Cu    0.00775    0.00300    0.00240
 20 Cu   -0.00661    0.00402   -0.01116
 21 Cu    0.00313   -0.01325    0.00645
 22 Cu    0.00301   -0.01486   -0.00501
 23 Cu   -0.00262   -0.00202   -0.00657
 24 Cu   -0.00404    0.01243   -0.00021
 25 Cu    0.01890    0.01457   -0.00159
 26 Cu    0.00262    0.00811    0.00117
 27 Cu   -0.01059    0.00512    0.00230
 28 Cu    0.00647   -0.00986    0.00021
 29 Cu    0.00053   -0.00026    0.00290
 30 Cu    0.00912    0.00568    0.00434
 31 Cu    0.00789    0.00122    0.01703
 32 Cu    0.00012    0.00396    0.00339
 33 Cu   -0.00125   -0.00021    0.00288
 34 Cu    0.00253    0.00103    0.00099
 35 Cu    0.00081   -0.00029    0.00624
 36 Cu    0.00870    0.00724    0.00482
 37 Cu   -0.00827   -0.00305    0.01202
 38 Cu    0.00000   -0.00447   -0.01158
 39 Cu   -0.00334   -0.01029    0.01208
 40 Cu   -0.00044   -0.00430   -0.01200
 41 Cu   -0.00151   -0.00275   -0.00317
 42 Cu   -0.00883    0.00194    0.00415
 43 Cu    0.00623   -0.00059   -0.01445
 44 Cu   -0.00623    0.00397   -0.01129
 45 Cu    0.01337   -0.00913   -0.00345
 46 Cu   -0.00911    0.00239    0.00854
 47 Cu   -0.02285   -0.01291   -0.00003
 48 Cu   -0.00668    0.00807   -0.00779
 49 Cu   -0.00110   -0.00549    0.00060
 50 Cu   -0.00385   -0.00370    0.00887
 51 Cu    0.00737    0.00773   -0.00072
 52 Cu   -0.00140    0.00196    0.00225
 53 Cu   -0.00465   -0.00859    0.00313
 54 Cl    0.00643   -0.00430    0.00855
 55 Cl    0.01315    0.01669   -0.00564
 56 Cl   -0.01173   -0.01200   -0.00231
 57 Cl   -0.01545   -0.01269    0.01019
 58 Cl    0.02189    0.00701    0.00799
 59 Cl   -0.01025   -0.00677   -0.01559
 60 Cl   -0.01220   -0.01543    0.00194
 61 Cl   -0.00161   -0.01320   -0.00959
 62 Cl    0.00648    0.00243   -0.00879
 63 Cl   -0.01309   -0.00843   -0.01919
 64 Cl   -0.00558    0.00654    0.00195
 65 Cl   -0.00344   -0.00718    0.00683
 66 Cl   -0.00260    0.00194   -0.00852
 67 Cl    0.02599   -0.00087   -0.00169

Timing:                                      incl.     excl.
-------------------------------------------------------------------
Density initialized from wave functions:   460.113   460.109   0.4% |
 Symmetrize density:                         0.004     0.004   0.0% |
Forces:                                   1854.894  1854.894   1.7% ||
Hamiltonian:                               788.156     1.636   0.0% |
 Atomic:                                    39.367    15.282   0.0% |
  XC Correction:                            24.085    24.085   0.0% |
 Calculate atomic Hamiltonians:            170.519   170.519   0.2% |
 Communicate:                                9.075     9.075   0.0% |
 Initialize Hamiltonian:                     0.002     0.002   0.0% |
 Poisson:                                    0.451     0.451   0.0% |
 XC 3D grid:                               567.107    80.287   0.1% |
  VdW-DF integral:                         486.820    18.155   0.0% |
   Convolution:                             28.696    28.696   0.0% |
   FFT:                                     15.080    15.080   0.0% |
   gather:                                 200.579   200.579   0.2% |
   hmm1:                                     8.702     8.702   0.0% |
   hmm2:                                    21.595    21.595   0.0% |
   iFFT:                                    15.754    15.754   0.0% |
   potential:                              171.196     2.011   0.0% |
    collect:                                25.848    25.848   0.0% |
    p1:                                     79.153    79.153   0.1% |
    p2:                                     30.457    30.457   0.0% |
    sum:                                    33.727    33.727   0.0% |
   splines:                                  7.062     7.062   0.0% |
LCAO initialization:                       299.253     0.688   0.0% |
 LCAO eigensolver:                          12.904     0.003   0.0% |
  Blacs Orbital Layouts:                     0.674     0.001   0.0% |
   General diagonalize:                      0.663     0.663   0.0% |
   Redistribute coefs:                       0.005     0.005   0.0% |
   Send coefs to domains:                    0.004     0.004   0.0% |
  Calculate projections:                     0.012     0.012   0.0% |
  Distribute overlap matrix:                11.724     0.001   0.0% |
   Scalapack redistribute:                   0.012     0.012   0.0% |
   blocked summation:                       11.711    11.711   0.0% |
  Potential matrix:                          0.381     0.381   0.0% |
  SparseAtomicCorrection:                    0.024     0.024   0.0% |
  Sum over cells:                            0.086     0.086   0.0% |
 LCAO to grid:                             282.812   282.812   0.3% |
 Set positions (LCAO WFS):                   2.849     0.059   0.0% |
  Basic WFS set positions:                   0.004     0.004   0.0% |
  Basis functions set positions:             0.001     0.001   0.0% |
  P tci:                                     0.085     0.085   0.0% |
  ST tci:                                    0.622     0.622   0.0% |
  Scalapack redistribute:                    0.021     0.021   0.0% |
  blocked summation:                         1.837     1.837   0.0% |
  mktci:                                     0.222     0.222   0.0% |
PWDescriptor:                                0.711     0.711   0.0% |
Redistribute:                                0.751     0.751   0.0% |
SCF-cycle:                               105832.683  5679.046   5.2% |-|
 Davidson:                               75733.640 18458.425  16.8% |------|
  Apply H:                                7937.336  7816.883   7.1% |--|
   HMM T:                                  120.453   120.453   0.1% |
  Subspace diag:                         13116.373     0.416   0.0% |
   calc_h_matrix:                         9823.013  1987.777   1.8% ||
    Apply H:                              7835.236  7705.190   7.0% |--|
     HMM T:                                130.046   130.046   0.1% |
   diagonalize:                            454.198   454.198   0.4% |
   rotate_psi:                            2838.746  2838.746   2.6% ||
  calc. matrices:                        28248.387 12601.067  11.5% |----|
   Apply H:                              15647.320 15408.262  14.0% |-----|
    HMM T:                                 239.058   239.058   0.2% |
  diagonalize:                            2709.730  2709.730   2.5% ||
  rotate_psi:                             5263.390  5263.390   4.8% |-|
 Density:                                 8980.569     0.089   0.0% |
  Atomic density matrices:                  42.012    42.012   0.0% |
  Mix:                                    4181.676  4181.676   3.8% |-|
  Multipole moments:                         1.890     1.890   0.0% |
  Pseudo density:                         4754.902  4754.827   4.3% |-|
   Symmetrize density:                       0.075     0.075   0.0% |
 Hamiltonian:                            15012.391    37.697   0.0% |
  Atomic:                                  751.823   271.445   0.2% |
   XC Correction:                          480.379   480.379   0.4% |
  Calculate atomic Hamiltonians:          3484.174  3484.174   3.2% ||
  Communicate:                             122.015   122.015   0.1% |
  Poisson:                                   9.387     9.387   0.0% |
  XC 3D grid:                            10607.296  1566.283   1.4% ||
   VdW-DF integral:                       9041.013   362.396   0.3% |
    Convolution:                           564.285   564.285   0.5% |
    FFT:                                   301.100   301.100   0.3% |
    gather:                               3478.495  3478.495   3.2% ||
    hmm1:                                  183.099   183.099   0.2% |
    hmm2:                                  434.787   434.787   0.4% |
    iFFT:                                  317.256   317.256   0.3% |
    potential:                            3399.575    41.113   0.0% |
     collect:                              511.997   511.997   0.5% |
     p1:                                  1564.397  1564.397   1.4% ||
     p2:                                   618.825   618.825   0.6% |
     sum:                                  663.244   663.244   0.6% |
    splines:                                 0.020     0.020   0.0% |
 Orthonormalize:                           427.037     0.036   0.0% |
  calc_s_matrix:                            47.088    47.088   0.0% |
  inverse-cholesky:                         88.768    88.768   0.1% |
  projections:                             220.080   220.080   0.2% |
  rotate_psi_s:                             71.066    71.066   0.1% |
Set symmetry:                                0.001     0.001   0.0% |
Other:                                     611.549   611.549   0.6% |
-------------------------------------------------------------------
Total:                                             109848.110 100.0%

Memory usage: 1.30 GiB
Date: Tue Oct 18 19:58:08 2022
