
  ___ ___ ___ _ _ _  
 |   |   |_  | | | | 
 | | | | | . | | | | 
 |__ |  _|___|_____|  22.1.0
 |___|_|             

User:   thorkong@node251.cluster
Date:   Mon Oct 17 14:35:18 2022
Arch:   x86_64
Pid:    223035
Python: 3.10.5
gpaw:   /groups/kemi/thorkong/miniconda3/envs/gpaw22/lib/python3.10/site-packages/gpaw
_gpaw:  /groups/kemi/thorkong/miniconda3/envs/gpaw22/lib/python3.10/site-packages/
        _gpaw.cpython-310-x86_64-linux-gnu.so
ase:    /groups/kemi/thorkong/miniconda3/envs/gpaw22/lib/python3.10/site-packages/ase (version 3.22.1)
numpy:  /groups/kemi/thorkong/miniconda3/envs/gpaw22/lib/python3.10/site-packages/numpy (version 1.23.0)
scipy:  /groups/kemi/thorkong/miniconda3/envs/gpaw22/lib/python3.10/site-packages/scipy (version 1.8.1)
libxc:  5.2.3
units:  Angstrom and eV
cores: 32
OpenMP: True
OMP_NUM_THREADS: 1

Input parameters:
  basis: dzp
  kpts: [4 4 1]
  mode: {ecut: 600.0,
         name: pw}
  xc: BEEF-vdW

System changes: positions, numbers, cell, pbc, initial_charges, initial_magmoms 

Initialize ...

Cu-setup:
  name: Copper
  id: f1c4d45d90492f1bbfdcb091e8418fdf
  Z: 29.0
  valence: 11
  core: 18
  charge: 0.0
  file: /groups/kemi/thorkong/miniconda3/envs/gpaw22/share/gpaw/Cu.PBE.gz
  compensation charges: gauss, rc=0.33, lmax=2
  cutoffs: 2.06(filt), 2.43(core),
  valence states:
                energy  radius
    4s(1.00)    -4.609   1.164
    4p(0.00)    -0.698   1.164
    3d(10.00)    -5.039   1.058
    *s          22.603   1.164
    *p          26.513   1.164
    *d          22.172   1.058

  LCAO basis set for Cu:
    Name: dzp
    File: /groups/kemi/thorkong/miniconda3/envs/gpaw22/share/gpaw/Cu.dzp.basis.gz
    Number of radial functions: 5
    Number of spherical harmonics: 15
      l=0, rc=8.9688 Bohr: 4s-sz confined orbital
      l=2, rc=5.1719 Bohr: 3d-sz confined orbital
      l=0, rc=5.3281 Bohr: 4s-dz split-valence wave
      l=2, rc=3.1406 Bohr: 3d-dz split-valence wave
      l=1, rc=8.9688 Bohr: p-type Gaussian polarization

Cl-setup:
  name: Chlorine
  id: 726897f06f34e53cf8e33b5885a02604
  Z: 17.0
  valence: 7
  core: 10
  charge: 0.0
  file: /groups/kemi/thorkong/miniconda3/envs/gpaw22/share/gpaw/Cl.PBE.gz
  compensation charges: gauss, rc=0.25, lmax=2
  cutoffs: 1.40(filt), 1.49(core),
  valence states:
                energy  radius
    3s(2.00)   -20.689   0.794
    3p(5.00)    -8.594   0.794
    *s           6.523   0.794
    *p          18.617   0.794
    *d           0.000   0.794

  LCAO basis set for Cl:
    Name: dzp
    File: /groups/kemi/thorkong/miniconda3/envs/gpaw22/share/gpaw/Cl.dzp.basis.gz
    Number of radial functions: 5
    Number of spherical harmonics: 13
      l=0, rc=5.1719 Bohr: 3s-sz confined orbital
      l=1, rc=6.2656 Bohr: 3p-sz confined orbital
      l=0, rc=2.8281 Bohr: 3s-dz split-valence wave
      l=1, rc=3.5156 Bohr: 3p-dz split-valence wave
      l=2, rc=6.2656 Bohr: d-type Gaussian polarization

Reference energy: -2481378.197003

Spin-paired calculation

Convergence criteria:
 Maximum [total energy] change in last 3 cyles: 0.0005 eV / electron
 Maximum integral of absolute [dens]ity change: 0.0001 electrons / valence electron
 Maximum integral of absolute [eigenst]ate change: 4e-08 eV^2 / valence electron
 Maximum number of scf [iter]ations: 333
 (Square brackets indicate name in SCF output, whereas a 'c' in
 the SCF output indicates the quantity has converged.)

Symmetries present (total): 1

  ( 1  0  0)
  ( 0  1  0)
  ( 0  0  1)

16 k-points: 4 x 4 x 1 Monkhorst-Pack grid
8 k-points in the irreducible part of the Brillouin zone
       k-points in crystal coordinates                weights
   0:     0.12500000   -0.37500000    0.00000000          2/16
   1:     0.12500000   -0.12500000    0.00000000          2/16
   2:     0.12500000    0.12500000    0.00000000          2/16
   3:     0.12500000    0.37500000    0.00000000          2/16
   4:     0.37500000   -0.37500000    0.00000000          2/16
   5:     0.37500000   -0.12500000    0.00000000          2/16
   6:     0.37500000    0.12500000    0.00000000          2/16
   7:     0.37500000    0.37500000    0.00000000          2/16

Wave functions: Plane wave expansion
  Cutoff energy: 600.000 eV
  Number of coefficients (min, max): 63070, 63184
  Pulay-stress correction: 0.000000 eV/Ang^3 (de/decut=0.000000)
  Using FFTW library
  ScaLapack parameters: grid=2x2, blocksize=64
  Wavefunction extrapolation:
    Improved wavefunction reuse through dual PAW basis 

Occupation numbers: Fermi-Dirac: width=0.1000 eV
 

Eigensolver
   Davidson(niter=2) 

Densities:
  Coarse grid: 45*48*175 grid
  Fine grid: 90*96*350 grid
  Total Charge: 0.000000 

Density mixing:
  Method: separate
  Backend: pulay
  Linear mixing parameter: 0.05
  Mixing with 5 old densities
  Damping of long wave oscillations: 50 

Hamiltonian:
  XC and Coulomb potentials evaluated on a 90*96*350 grid
  Using the BEEF-vdW Exchange-Correlation functional
  External potential:
    NoExternalPotential
 

XC parameters: BEEF-vdW with 2 nearest neighbor stencil

Memory estimate:
  Process memory now: 252.07 MiB
  Calculator: 834.12 MiB
    Density: 47.05 MiB
      Arrays: 18.85 MiB
      Localized functions: 20.94 MiB
      Mixer: 7.25 MiB
    Hamiltonian: 12.84 MiB
      Arrays: 12.33 MiB
      XC: 0.00 MiB
      Poisson: 0.00 MiB
      vbar: 0.51 MiB
    Wavefunctions: 774.23 MiB
      Arrays psit_nG: 364.43 MiB
      Eigensolver: 391.07 MiB
      Projections: 1.48 MiB
      Projectors: 2.41 MiB
      PW-descriptor: 14.84 MiB

Total number of cores used: 32
Parallelization over k-points: 8
Domain decomposition: 1 x 1 x 4
                      2 x 2 x 8 (xc only)

Number of atoms: 58
Number of atomic orbitals: 862
Number of bands in calculation: 378
Number of valence electrons: 622
Bands to converge: occupied

... initialized

Initializing position-dependent things.

Density initialized from atomic densities
Creating initial wave functions:
  378 bands from LCAO basis set

                                     
                                     
                                     
                                     
                                     
                                     
                Cl                   
        Cl Cu    Cu     Cu           
               Cu    Cu     Cu       
         Cu    Cu     Cu             
             Cu    Cu     Cu         
       Cu     Cu    Cu               
           Cu    CCu    Cu           
         Cu    Cu    CCu    Cu       
                                     
       Cu    CCu    Cu    Cu         
           Cu    CCu    Cu           
               Cu    Cu     Cu       
         Cu     Cu    Cu             
             Cu     Cu    Cu         
       Cu     Cu    Cu               
           Cu Cl  Cu    Cu           
                   Cl                
                                     
                                     
                                     
                                     
                                     
                                     

Positions:
   0 Cu     1.851874    1.842086   10.044767    ( 0.0000,  0.0000,  0.0000)
   1 Cu     0.572048    0.518337   11.854739    ( 0.0000,  0.0000,  0.0000)
   2 Cu     3.208369    0.549454   11.826759    ( 0.0000,  0.0000,  0.0000)
   3 Cu     1.885044    1.836608   13.699605    ( 0.0000,  0.0000,  0.0000)
   4 Cu     0.579320    0.526826   15.560947    ( 0.0000,  0.0000,  0.0000)
   5 Cu     3.185437    0.522508   15.555968    ( 0.0000,  0.0000,  0.0000)
   6 Cu     1.901068    1.854575   17.424612    ( 0.0000,  0.0000,  0.0000)
   7 Cu     0.575906    0.561899   19.206760    ( 0.0000,  0.0000,  0.0000)
   8 Cu     3.188310    0.488633   19.210481    ( 0.0000,  0.0000,  0.0000)
   9 Cu     0.574574    3.144633   11.846476    ( 0.0000,  0.0000,  0.0000)
  10 Cu     0.575916    3.143785   15.552326    ( 0.0000,  0.0000,  0.0000)
  11 Cu     0.546349    3.145891   19.206137    ( 0.0000,  0.0000,  0.0000)
  12 Cu     7.147069    1.821677   10.043621    ( 0.0000,  0.0000,  0.0000)
  13 Cu     5.794000    0.540777   11.820405    ( 0.0000,  0.0000,  0.0000)
  14 Cu     7.114080    1.831917   13.694773    ( 0.0000,  0.0000,  0.0000)
  15 Cu     5.808982    0.523918   15.556714    ( 0.0000,  0.0000,  0.0000)
  16 Cu     7.113100    1.827061   17.396972    ( 0.0000,  0.0000,  0.0000)
  17 Cu     5.807880    0.526790   19.217827    ( 0.0000,  0.0000,  0.0000)
  18 Cu     4.494064    1.763231    9.932089    ( 0.0000,  0.0000,  0.0000)
  19 Cu     4.496146    4.525263    9.931071    ( 0.0000,  0.0000,  0.0000)
  20 Cu     3.207669    3.147945   11.830838    ( 0.0000,  0.0000,  0.0000)
  21 Cu     5.791432    3.139321   11.831411    ( 0.0000,  0.0000,  0.0000)
  22 Cu     4.501104    1.833097   13.705422    ( 0.0000,  0.0000,  0.0000)
  23 Cu     4.500286    4.451342   13.700374    ( 0.0000,  0.0000,  0.0000)
  24 Cu     3.191019    3.143173   15.550169    ( 0.0000,  0.0000,  0.0000)
  25 Cu     5.806714    3.142761   15.552225    ( 0.0000,  0.0000,  0.0000)
  26 Cu     4.483820    1.848780   17.430757    ( 0.0000,  0.0000,  0.0000)
  27 Cu     4.483576    4.446716   17.420218    ( 0.0000,  0.0000,  0.0000)
  28 Cu     3.195113    3.070202   19.320757    ( 0.0000,  0.0000,  0.0000)
  29 Cu     5.840799    3.127025   19.209886    ( 0.0000,  0.0000,  0.0000)
  30 Cu     1.850636    4.467419   10.041562    ( 0.0000,  0.0000,  0.0000)
  31 Cu     1.883456    7.067453   10.032493    ( 0.0000,  0.0000,  0.0000)
  32 Cu     0.578168    5.767618   11.853682    ( 0.0000,  0.0000,  0.0000)
  33 Cu     3.207330    5.746015   11.820678    ( 0.0000,  0.0000,  0.0000)
  34 Cu     1.884398    4.451712   13.698510    ( 0.0000,  0.0000,  0.0000)
  35 Cu     1.882140    7.070634   13.694193    ( 0.0000,  0.0000,  0.0000)
  36 Cu     0.577138    5.762455   15.555937    ( 0.0000,  0.0000,  0.0000)
  37 Cu     3.190200    5.761333   15.545038    ( 0.0000,  0.0000,  0.0000)
  38 Cu     1.899950    4.455283   17.419419    ( 0.0000,  0.0000,  0.0000)
  39 Cu     1.897387    7.053708   17.430112    ( 0.0000,  0.0000,  0.0000)
  40 Cu     0.544416    5.772752   19.207193    ( 0.0000,  0.0000,  0.0000)
  41 Cu     3.197353    5.832220   19.317966    ( 0.0000,  0.0000,  0.0000)
  42 Cu     7.144990    4.448863   10.045121    ( 0.0000,  0.0000,  0.0000)
  43 Cu     7.115261    7.033008   10.044024    ( 0.0000,  0.0000,  0.0000)
  44 Cu     5.790284    5.740371   11.826573    ( 0.0000,  0.0000,  0.0000)
  45 Cu     7.115409    4.450638   13.698320    ( 0.0000,  0.0000,  0.0000)
  46 Cu     7.111993    7.067752   13.689826    ( 0.0000,  0.0000,  0.0000)
  47 Cu     5.806194    5.757852   15.551058    ( 0.0000,  0.0000,  0.0000)
  48 Cu     7.116689    4.449777   17.404260    ( 0.0000,  0.0000,  0.0000)
  49 Cu     7.119110    7.076103   17.395949    ( 0.0000,  0.0000,  0.0000)
  50 Cu     5.839650    5.752596   19.206190    ( 0.0000,  0.0000,  0.0000)
  51 Cu     4.502840    7.106124   10.040718    ( 0.0000,  0.0000,  0.0000)
  52 Cu     4.505854    7.072213   13.694900    ( 0.0000,  0.0000,  0.0000)
  53 Cu     4.482985    7.045347   17.423899    ( 0.0000,  0.0000,  0.0000)
  54 Cl     3.111134    4.453599   21.202893    ( 0.0000,  0.0000,  0.0000)
  55 Cl     4.580310    3.143724    8.048163    ( 0.0000,  0.0000,  0.0000)
  56 Cl     1.867046    5.767436    8.237027    ( 0.0000,  0.0000,  0.0000)
  57 Cl     0.561128    1.853895   21.006449    ( 0.0000,  0.0000,  0.0000)

Unit cell:
           periodic     x           y           z      points  spacing
  1. axis:    yes    7.851007    0.000000    0.000000    45     0.1655
  2. axis:    yes    2.617002    7.851007    0.000000    48     0.1636
  3. axis:    yes    0.000000    0.000000   30.683867   175     0.1753

  Lengths:   7.851007   8.275688  30.683867
  Angles:   90.000000  90.000000  71.565053

Effective grid spacing dv^(1/3) = 0.1710

     iter     time        total  log10-change:
                         energy  eigst   dens
iter:   1 14:40:10 -4295.708424
iter:   2 14:40:58 -4259.082611  -0.79  -1.09
iter:   3 14:41:47 -4246.190497  -1.43  -1.27
iter:   4 14:42:36 -4240.319568  -1.42  -1.36
iter:   5 14:43:25 -4239.850031  -1.68  -1.51
iter:   6 14:44:14 -4236.722433  -2.00  -1.60
iter:   7 14:45:02 -4235.745355  -2.08  -1.75
iter:   8 14:45:52 -4235.347237  -2.29  -1.77
iter:   9 14:46:40 -4234.815768  -2.64  -2.19
iter:  10 14:47:30 -4234.686040  -2.66  -2.42
iter:  11 14:48:19 -4234.596167c -3.40  -2.56
iter:  12 14:49:08 -4234.588947c -4.36  -2.90
iter:  13 14:49:57 -4234.572724c -3.88  -2.99
iter:  14 14:50:45 -4234.572060c -4.71  -3.13
iter:  15 14:51:34 -4234.570986c -4.60  -3.19
iter:  16 14:52:23 -4234.570757c -4.68  -3.33
iter:  17 14:53:12 -4234.570242c -5.07  -3.49
iter:  18 14:54:01 -4234.570242c -5.91  -3.68
iter:  19 14:54:50 -4234.569787c -5.54  -3.72
iter:  20 14:55:39 -4234.569634c -6.00  -3.85
iter:  21 14:56:28 -4234.569551c -6.27  -3.96
iter:  22 14:57:17 -4234.569511c -6.69  -4.08c
iter:  23 14:58:06 -4234.569513c -6.58  -4.15c
iter:  24 14:58:55 -4234.569502c -7.15  -4.23c
iter:  25 14:59:44 -4234.569473c -6.75  -4.27c
iter:  26 15:00:33 -4234.569461c -7.47c -4.54c

Converged after 26 iterations.

Dipole moment: (-3.343171, -27.247544, 0.004566) |e|*Ang

Energy contributions relative to reference atoms: (reference = -2481378.197003)

Kinetic:       +430.159266
Potential:     -470.257379
External:        +0.000000
XC:            -4193.337214
Entropy (-ST):   -0.606858
Local:           -0.830704
--------------------------
Free energy:   -4234.872890
Extrapolated:  -4234.569461

Showing only first 2 kpts
 Kpt  Band  Eigenvalues  Occupancy
  0   309     -0.81457    1.86664
  0   310     -0.69316    1.61214
  0   311     -0.63506    1.39849
  0   312     -0.53890    0.94112

  1   309     -0.95617    1.96591
  1   310     -0.82662    1.88087
  1   311     -0.74831    1.75656
  1   312     -0.49798    0.74241


Fermi level: -0.55069

No gap

Forces in eV/Ang:
  0 Cu    0.01120   -0.02314    0.04224
  1 Cu   -0.05086   -0.06209   -0.04205
  2 Cu   -0.00931    0.00273   -0.01684
  3 Cu   -0.01829   -0.02757    0.02726
  4 Cu    0.00874   -0.00206   -0.00974
  5 Cu    0.01308    0.01587    0.02264
  6 Cu    0.04729    0.00047   -0.22401
  7 Cu    0.02079   -0.72276   -0.27807
  8 Cu    0.18327   -0.08057   -0.04781
  9 Cu    0.05243    0.06913   -0.03171
 10 Cu   -0.00389    0.00449   -0.00679
 11 Cu   -0.01228    0.73167   -0.31961
 12 Cu    0.00100    0.04185    0.05101
 13 Cu    0.05891   -0.03843   -0.02797
 14 Cu    0.01708    0.02974    0.04539
 15 Cu   -0.01914   -0.00075   -0.04869
 16 Cu   -0.05242    0.00061   -0.23377
 17 Cu   -0.19928   -0.08496   -0.07236
 18 Cu   -0.01762    0.03450   -0.04941
 19 Cu    0.18148   -0.10528    0.00263
 20 Cu   -0.06324    0.05426   -0.03442
 21 Cu    0.00767    0.00457    0.00143
 22 Cu   -0.00106   -0.00209   -0.01253
 23 Cu    0.00693    0.00923   -0.02124
 24 Cu    0.02010    0.00490   -0.02624
 25 Cu   -0.01440   -0.00842    0.00601
 26 Cu    0.01139    0.00337    0.06081
 27 Cu    0.00226   -0.00163    0.01552
 28 Cu    0.20133    0.10187   -0.01043
 29 Cu   -0.20670    0.09099   -0.07387
 30 Cu    0.00634   -0.71224    0.27018
 31 Cu    0.01646    0.72296    0.29657
 32 Cu   -0.06039   -0.00759    0.22409
 33 Cu    0.05668   -0.01186    0.22771
 34 Cu   -0.00114   -0.00359    0.00140
 35 Cu   -0.00295   -0.00095    0.00758
 36 Cu    0.01002    0.01027   -0.03550
 37 Cu   -0.00251   -0.02159   -0.02899
 38 Cu   -0.06389   -0.05613    0.01869
 39 Cu    0.06239    0.06419    0.02717
 40 Cu    0.00580    0.02215   -0.02707
 41 Cu   -0.01284   -0.07224    0.04200
 42 Cu   -0.19506   -0.08609    0.06714
 43 Cu   -0.20598    0.06148    0.06366
 44 Cu    0.00476   -0.00918   -0.05047
 45 Cu   -0.00800   -0.00282    0.04986
 46 Cu   -0.01021   -0.00499   -0.00451
 47 Cu   -0.00523   -0.00015    0.00334
 48 Cu    0.07372   -0.05516    0.02058
 49 Cu    0.00690    0.00215    0.01823
 50 Cu   -0.00207    0.00551   -0.00434
 51 Cu    0.19058    0.08394    0.04618
 52 Cu    0.01013    0.00459    0.03765
 53 Cu   -0.06734    0.05059    0.02961
 54 Cl    0.10476    0.10529   -0.08607
 55 Cl    0.08002   -0.06818    0.05623
 56 Cl   -0.07105    0.04401   -1.23110
 57 Cl   -0.09853   -0.10102    1.28679

System changes: positions 

Initializing position-dependent things.

Density initialized from wave functions
                                     
                                     
                                     
                                     
                                     
                                     
                Cl                   
        Cl Cu    Cu     Cu           
               Cu    Cu     Cu       
         Cu    Cu     Cu             
             Cu    Cu     Cu         
       Cu     Cu    Cu               
           Cu    CCu    Cu           
         Cu    Cu    CCu    Cu       
                                     
       Cu    CCu    Cu    Cu         
           Cu    CCu    Cu           
               Cu    Cu     Cu       
         Cu    Cu     Cu             
             Cu     Cu    Cu         
       Cu     Cu    Cu               
           Cu Cl  Cu    Cu           
                   Cl                
                                     
                                     
                                     
                                     
                                     
                                     

Positions:
   0 Cu     1.852994    1.839772   10.048991    ( 0.0000,  0.0000,  0.0000)
   1 Cu     0.566962    0.512128   11.850534    ( 0.0000,  0.0000,  0.0000)
   2 Cu     3.207438    0.549727   11.825075    ( 0.0000,  0.0000,  0.0000)
   3 Cu     1.883215    1.833851   13.702331    ( 0.0000,  0.0000,  0.0000)
   4 Cu     0.580194    0.526620   15.559973    ( 0.0000,  0.0000,  0.0000)
   5 Cu     3.186745    0.524095   15.558232    ( 0.0000,  0.0000,  0.0000)
   6 Cu     1.905797    1.854622   17.402211    ( 0.0000,  0.0000,  0.0000)
   7 Cu     0.577985    0.489623   19.178953    ( 0.0000,  0.0000,  0.0000)
   8 Cu     3.206637    0.480576   19.205700    ( 0.0000,  0.0000,  0.0000)
   9 Cu     0.579817    3.151546   11.843305    ( 0.0000,  0.0000,  0.0000)
  10 Cu     0.575527    3.144234   15.551647    ( 0.0000,  0.0000,  0.0000)
  11 Cu     0.545121    3.219058   19.174176    ( 0.0000,  0.0000,  0.0000)
  12 Cu     7.147169    1.825862   10.048722    ( 0.0000,  0.0000,  0.0000)
  13 Cu     5.799891    0.536934   11.817608    ( 0.0000,  0.0000,  0.0000)
  14 Cu     7.115788    1.834891   13.699312    ( 0.0000,  0.0000,  0.0000)
  15 Cu     5.807068    0.523843   15.551845    ( 0.0000,  0.0000,  0.0000)
  16 Cu     7.107858    1.827122   17.373595    ( 0.0000,  0.0000,  0.0000)
  17 Cu     5.787952    0.518294   19.210591    ( 0.0000,  0.0000,  0.0000)
  18 Cu     4.492302    1.766681    9.927148    ( 0.0000,  0.0000,  0.0000)
  19 Cu     4.514294    4.514735    9.931334    ( 0.0000,  0.0000,  0.0000)
  20 Cu     3.201345    3.153371   11.827396    ( 0.0000,  0.0000,  0.0000)
  21 Cu     5.792199    3.139778   11.831554    ( 0.0000,  0.0000,  0.0000)
  22 Cu     4.500998    1.832888   13.704169    ( 0.0000,  0.0000,  0.0000)
  23 Cu     4.500979    4.452265   13.698250    ( 0.0000,  0.0000,  0.0000)
  24 Cu     3.193029    3.143663   15.547545    ( 0.0000,  0.0000,  0.0000)
  25 Cu     5.805274    3.141919   15.552826    ( 0.0000,  0.0000,  0.0000)
  26 Cu     4.484959    1.849117   17.436838    ( 0.0000,  0.0000,  0.0000)
  27 Cu     4.483802    4.446553   17.421770    ( 0.0000,  0.0000,  0.0000)
  28 Cu     3.215246    3.080389   19.319714    ( 0.0000,  0.0000,  0.0000)
  29 Cu     5.820129    3.136124   19.202499    ( 0.0000,  0.0000,  0.0000)
  30 Cu     1.851270    4.396195   10.068580    ( 0.0000,  0.0000,  0.0000)
  31 Cu     1.885102    7.139749   10.062150    ( 0.0000,  0.0000,  0.0000)
  32 Cu     0.572129    5.766859   11.876091    ( 0.0000,  0.0000,  0.0000)
  33 Cu     3.212998    5.744829   11.843449    ( 0.0000,  0.0000,  0.0000)
  34 Cu     1.884284    4.451353   13.698650    ( 0.0000,  0.0000,  0.0000)
  35 Cu     1.881845    7.070539   13.694951    ( 0.0000,  0.0000,  0.0000)
  36 Cu     0.578140    5.763482   15.552387    ( 0.0000,  0.0000,  0.0000)
  37 Cu     3.189949    5.759174   15.542139    ( 0.0000,  0.0000,  0.0000)
  38 Cu     1.893561    4.449670   17.421288    ( 0.0000,  0.0000,  0.0000)
  39 Cu     1.903626    7.060127   17.432829    ( 0.0000,  0.0000,  0.0000)
  40 Cu     0.544996    5.774967   19.204486    ( 0.0000,  0.0000,  0.0000)
  41 Cu     3.196069    5.824996   19.322166    ( 0.0000,  0.0000,  0.0000)
  42 Cu     7.125484    4.440254   10.051835    ( 0.0000,  0.0000,  0.0000)
  43 Cu     7.094663    7.039156   10.050390    ( 0.0000,  0.0000,  0.0000)
  44 Cu     5.790760    5.739453   11.821526    ( 0.0000,  0.0000,  0.0000)
  45 Cu     7.114609    4.450356   13.703306    ( 0.0000,  0.0000,  0.0000)
  46 Cu     7.110972    7.067253   13.689375    ( 0.0000,  0.0000,  0.0000)
  47 Cu     5.805671    5.757837   15.551392    ( 0.0000,  0.0000,  0.0000)
  48 Cu     7.124061    4.444261   17.406318    ( 0.0000,  0.0000,  0.0000)
  49 Cu     7.119800    7.076318   17.397772    ( 0.0000,  0.0000,  0.0000)
  50 Cu     5.839443    5.753147   19.205756    ( 0.0000,  0.0000,  0.0000)
  51 Cu     4.521898    7.114518   10.045336    ( 0.0000,  0.0000,  0.0000)
  52 Cu     4.506867    7.072672   13.698665    ( 0.0000,  0.0000,  0.0000)
  53 Cu     4.476251    7.050406   17.426860    ( 0.0000,  0.0000,  0.0000)
  54 Cl     3.121610    4.464128   21.194286    ( 0.0000,  0.0000,  0.0000)
  55 Cl     4.588312    3.136906    8.053786    ( 0.0000,  0.0000,  0.0000)
  56 Cl     1.859941    5.771837    8.113917    ( 0.0000,  0.0000,  0.0000)
  57 Cl     0.551275    1.843793   21.135128    ( 0.0000,  0.0000,  0.0000)

Unit cell:
           periodic     x           y           z      points  spacing
  1. axis:    yes    7.851007    0.000000    0.000000    45     0.1655
  2. axis:    yes    2.617002    7.851007    0.000000    48     0.1636
  3. axis:    yes    0.000000    0.000000   30.683867   175     0.1753

  Lengths:   7.851007   8.275688  30.683867
  Angles:   90.000000  90.000000  71.565053

Effective grid spacing dv^(1/3) = 0.1710

     iter     time        total  log10-change:
                         energy  eigst   dens
iter:   1 15:01:47 -4237.828448  -1.48
iter:   2 15:02:36 -4235.741851  -2.47  -2.03
iter:   3 15:03:24 -4235.153339  -2.75  -2.32
iter:   4 15:04:12 -4235.292381  -2.52  -2.47
iter:   5 15:05:00 -4234.848543  -3.18  -2.39
iter:   6 15:05:49 -4234.767261  -3.09  -2.80
iter:   7 15:06:36 -4234.795967c -3.60  -3.05
iter:   8 15:07:25 -4234.750003c -3.61  -3.19
iter:   9 15:08:14 -4234.747589c -4.95  -3.40
iter:  10 15:09:02 -4234.745390c -4.86  -3.47
iter:  11 15:09:50 -4234.746305c -5.16  -3.59
iter:  12 15:10:39 -4234.745828c -5.63  -3.59
iter:  13 15:11:28 -4234.744769c -5.50  -3.71
iter:  14 15:12:17 -4234.744707c -5.02  -3.80
iter:  15 15:13:05 -4234.744348c -6.08  -4.11c
iter:  16 15:13:54 -4234.744247c -6.05  -4.22c
iter:  17 15:14:42 -4234.744263c -7.10  -4.30c
iter:  18 15:15:31 -4234.744255c -6.94  -4.31c
iter:  19 15:16:20 -4234.744235c -6.63  -4.36c
iter:  20 15:17:08 -4234.744232c -7.35  -4.53c
iter:  21 15:17:57 -4234.744231c -7.09  -4.49c
iter:  22 15:18:46 -4234.744241c -7.30  -4.52c
iter:  23 15:19:35 -4234.744240c -7.95c -4.58c

Converged after 23 iterations.

Dipole moment: (-2.498991, -27.304808, 0.005203) |e|*Ang

Energy contributions relative to reference atoms: (reference = -2481378.197003)

Kinetic:       +421.006344
Potential:     -462.824319
External:        +0.000000
XC:            -4191.876746
Entropy (-ST):   -0.604865
Local:           -0.747088
--------------------------
Free energy:   -4235.046673
Extrapolated:  -4234.744240

Showing only first 2 kpts
 Kpt  Band  Eigenvalues  Occupancy
  0   309     -0.92585    1.85998
  0   310     -0.80388    1.59374
  0   311     -0.74617    1.37556
  0   312     -0.65836    0.95584

  1   309     -1.07290    1.96599
  1   310     -0.95193    1.89037
  1   311     -0.87105    1.76957
  1   312     -0.61334    0.73704


Fermi level: -0.66719

No gap

Forces in eV/Ang:
  0 Cu    0.00140   -0.11658    0.01075
  1 Cu    0.04221    0.02148    0.07195
  2 Cu    0.00815    0.03670    0.04288
  3 Cu   -0.00886   -0.01739   -0.00237
  4 Cu    0.00337   -0.02119   -0.03366
  5 Cu    0.02773   -0.00585    0.00274
  6 Cu   -0.02173   -0.00191    0.00437
  7 Cu    0.00184    0.28873    0.46305
  8 Cu    0.03251    0.00429   -0.00726
  9 Cu   -0.04514   -0.02586    0.08510
 10 Cu    0.00465    0.01860   -0.03321
 11 Cu    0.00384   -0.27139    0.48109
 12 Cu    0.00526    0.14771    0.01548
 13 Cu   -0.05057    0.03678    0.06573
 14 Cu    0.01196    0.01660    0.00477
 15 Cu   -0.02776   -0.01716   -0.03665
 16 Cu    0.01370   -0.00434   -0.00184
 17 Cu   -0.03393   -0.00132   -0.01760
 18 Cu   -0.01095   -0.00088   -0.01425
 19 Cu    0.04615   -0.01621    0.00060
 20 Cu    0.03908   -0.02648    0.05182
 21 Cu   -0.01109   -0.02385    0.04533
 22 Cu   -0.00424   -0.00043   -0.03511
 23 Cu    0.02247   -0.01129   -0.00244
 24 Cu    0.02663    0.01522   -0.02556
 25 Cu   -0.02853    0.01242   -0.00734
 26 Cu   -0.00168    0.00435   -0.01253
 27 Cu   -0.00701    0.03057   -0.03555
 28 Cu    0.05050    0.01267    0.00025
 29 Cu   -0.03118    0.01188   -0.02548
 30 Cu    0.00886    0.22604   -0.44806
 31 Cu   -0.00067   -0.24648   -0.45065
 32 Cu    0.00804   -0.00497   -0.00481
 33 Cu   -0.01738    0.00218   -0.00162
 34 Cu   -0.00030   -0.02320    0.02858
 35 Cu    0.00387    0.01965    0.02782
 36 Cu    0.00670    0.01458   -0.00350
 37 Cu   -0.00318   -0.01561    0.00231
 38 Cu    0.04685    0.03212   -0.07516
 39 Cu   -0.04114   -0.03476   -0.07547
 40 Cu    0.01081    0.11929   -0.00436
 41 Cu   -0.01237   -0.14300    0.02007
 42 Cu   -0.03458   -0.00004    0.01433
 43 Cu   -0.03118   -0.00089    0.01693
 44 Cu   -0.00522   -0.00942    0.01888
 45 Cu   -0.02091   -0.01201    0.03736
 46 Cu   -0.02652    0.01470    0.00783
 47 Cu   -0.00135    0.00191    0.02796
 48 Cu   -0.05031    0.04198   -0.09089
 49 Cu    0.00185   -0.03239   -0.04941
 50 Cu    0.00121    0.00100   -0.00679
 51 Cu    0.03354   -0.00814    0.00118
 52 Cu    0.01961    0.01451    0.02647
 53 Cu    0.04118   -0.03908   -0.06228
 54 Cl    0.10107    0.07589   -0.06821
 55 Cl    0.08644   -0.06461    0.05602
 56 Cl   -0.07933    0.06662    0.31358
 57 Cl   -0.10229   -0.08555   -0.32838

System changes: positions 

Initializing position-dependent things.

Density initialized from wave functions
                                     
                                     
                                     
                                     
                                     
                                     
                Cl                   
        Cl Cu    Cu     Cu           
               Cu    Cu     Cu       
         Cu    Cu     Cu             
             Cu    Cu     Cu         
       Cu     Cu    Cu               
           Cu    CCu    Cu           
         Cu    Cu    CCu    Cu       
                                     
       Cu    CCu    Cu    Cu         
           Cu    CCu    Cu           
               Cu    Cu     Cu       
         Cu    Cu     Cu             
             Cu     Cu    Cu         
       Cu     Cu    Cu               
           Cu Cl  Cu    Cu           
                   Cl                
                                     
                                     
                                     
                                     
                                     
                                     

Positions:
   0 Cu     1.853198    1.830675   10.050180    ( 0.0000,  0.0000,  0.0000)
   1 Cu     0.569739    0.513225   11.855656    ( 0.0000,  0.0000,  0.0000)
   2 Cu     3.207978    0.552551   11.828200    ( 0.0000,  0.0000,  0.0000)
   3 Cu     1.882380    1.832283   13.702388    ( 0.0000,  0.0000,  0.0000)
   4 Cu     0.580528    0.524985   15.557320    ( 0.0000,  0.0000,  0.0000)
   5 Cu     3.188974    0.523788   15.558639    ( 0.0000,  0.0000,  0.0000)
   6 Cu     1.904552    1.854481   17.400590    ( 0.0000,  0.0000,  0.0000)
   7 Cu     0.578307    0.505347   19.211856    ( 0.0000,  0.0000,  0.0000)
   8 Cu     3.210716    0.480201   19.204729    ( 0.0000,  0.0000,  0.0000)
   9 Cu     0.576830    3.150176   11.849522    ( 0.0000,  0.0000,  0.0000)
  10 Cu     0.575848    3.145692   15.549055    ( 0.0000,  0.0000,  0.0000)
  11 Cu     0.545307    3.204734   19.208094    ( 0.0000,  0.0000,  0.0000)
  12 Cu     7.147579    1.837497   10.050348    ( 0.0000,  0.0000,  0.0000)
  13 Cu     5.796546    0.539404   11.822379    ( 0.0000,  0.0000,  0.0000)
  14 Cu     7.116850    1.836417   13.700072    ( 0.0000,  0.0000,  0.0000)
  15 Cu     5.804784    0.522527   15.548624    ( 0.0000,  0.0000,  0.0000)
  16 Cu     7.108446    1.826796   17.371415    ( 0.0000,  0.0000,  0.0000)
  17 Cu     5.783625    0.517452   19.208618    ( 0.0000,  0.0000,  0.0000)
  18 Cu     4.491313    1.766915    9.925630    ( 0.0000,  0.0000,  0.0000)
  19 Cu     4.519398    4.512579    9.931403    ( 0.0000,  0.0000,  0.0000)
  20 Cu     3.203775    3.151824   11.831049    ( 0.0000,  0.0000,  0.0000)
  21 Cu     5.791419    3.137998   11.835026    ( 0.0000,  0.0000,  0.0000)
  22 Cu     4.500665    1.832837   13.701381    ( 0.0000,  0.0000,  0.0000)
  23 Cu     4.502754    4.451484   13.697879    ( 0.0000,  0.0000,  0.0000)
  24 Cu     3.195236    3.144867   15.545366    ( 0.0000,  0.0000,  0.0000)
  25 Cu     5.802971    3.142793   15.552318    ( 0.0000,  0.0000,  0.0000)
  26 Cu     4.484930    1.849478   17.436412    ( 0.0000,  0.0000,  0.0000)
  27 Cu     4.483288    4.448871   17.419193    ( 0.0000,  0.0000,  0.0000)
  28 Cu     3.220854    3.082245   19.319642    ( 0.0000,  0.0000,  0.0000)
  29 Cu     5.815947    3.137824   19.199910    ( 0.0000,  0.0000,  0.0000)
  30 Cu     1.852001    4.407228   10.036752    ( 0.0000,  0.0000,  0.0000)
  31 Cu     1.885194    7.127250   10.030354    ( 0.0000,  0.0000,  0.0000)
  32 Cu     0.572215    5.766413   11.877678    ( 0.0000,  0.0000,  0.0000)
  33 Cu     3.212166    5.744892   11.845312    ( 0.0000,  0.0000,  0.0000)
  34 Cu     1.884251    4.449552   13.700843    ( 0.0000,  0.0000,  0.0000)
  35 Cu     1.882114    7.072030   13.697139    ( 0.0000,  0.0000,  0.0000)
  36 Cu     0.578739    5.764685   15.551810    ( 0.0000,  0.0000,  0.0000)
  37 Cu     3.189685    5.757794   15.542063    ( 0.0000,  0.0000,  0.0000)
  38 Cu     1.896578    4.451632   17.415717    ( 0.0000,  0.0000,  0.0000)
  39 Cu     1.901031    7.058034   17.427308    ( 0.0000,  0.0000,  0.0000)
  40 Cu     0.545871    5.784261   19.203917    ( 0.0000,  0.0000,  0.0000)
  41 Cu     3.195013    5.813455   19.324064    ( 0.0000,  0.0000,  0.0000)
  42 Cu     7.121144    4.439500   10.053513    ( 0.0000,  0.0000,  0.0000)
  43 Cu     7.090488    7.039625   10.052237    ( 0.0000,  0.0000,  0.0000)
  44 Cu     5.790403    5.738654   11.822526    ( 0.0000,  0.0000,  0.0000)
  45 Cu     7.112944    4.449415   13.706592    ( 0.0000,  0.0000,  0.0000)
  46 Cu     7.108859    7.068331   13.689932    ( 0.0000,  0.0000,  0.0000)
  47 Cu     5.805523    5.757982   15.553555    ( 0.0000,  0.0000,  0.0000)
  48 Cu     7.120866    4.446983   17.399563    ( 0.0000,  0.0000,  0.0000)
  49 Cu     7.120002    7.073866   17.394161    ( 0.0000,  0.0000,  0.0000)
  50 Cu     5.839517    5.753271   19.205200    ( 0.0000,  0.0000,  0.0000)
  51 Cu     4.526119    7.114629   10.045829    ( 0.0000,  0.0000,  0.0000)
  52 Cu     4.508451    7.073819   13.701012    ( 0.0000,  0.0000,  0.0000)
  53 Cu     4.478805    7.047866   17.422366    ( 0.0000,  0.0000,  0.0000)
  54 Cl     3.130235    4.470837   21.188331    ( 0.0000,  0.0000,  0.0000)
  55 Cl     4.595604    3.131381    8.058551    ( 0.0000,  0.0000,  0.0000)
  56 Cl     1.853269    5.777303    8.127103    ( 0.0000,  0.0000,  0.0000)
  57 Cl     0.542611    1.836384   21.121298    ( 0.0000,  0.0000,  0.0000)

Unit cell:
           periodic     x           y           z      points  spacing
  1. axis:    yes    7.851007    0.000000    0.000000    45     0.1655
  2. axis:    yes    2.617002    7.851007    0.000000    48     0.1636
  3. axis:    yes    0.000000    0.000000   30.683867   175     0.1753

  Lengths:   7.851007   8.275688  30.683867
  Angles:   90.000000  90.000000  71.565053

Effective grid spacing dv^(1/3) = 0.1710

     iter     time        total  log10-change:
                         energy  eigst   dens
iter:   1 15:20:50 -4234.919794  -2.66
iter:   2 15:21:38 -4234.870388  -4.06  -2.74
iter:   3 15:22:27 -4234.872261c -3.43  -2.83
iter:   4 15:23:15 -4234.830809c -3.78  -2.85
iter:   5 15:24:04 -4234.817626c -4.10  -3.20
iter:   6 15:24:52 -4234.818791c -4.44  -3.34
iter:   7 15:25:41 -4234.815639c -4.88  -3.61
iter:   8 15:26:29 -4234.815442c -5.42  -3.77
iter:   9 15:27:18 -4234.815203c -5.58  -3.92
iter:  10 15:28:06 -4234.815283c -6.15  -4.03c
iter:  11 15:28:55 -4234.815134c -6.58  -4.01c
iter:  12 15:29:44 -4234.815069c -6.21  -4.16c
iter:  13 15:30:36 -4234.815052c -6.63  -4.26c
iter:  14 15:31:25 -4234.815056c -7.24  -4.54c
iter:  15 15:32:14 -4234.815067c -7.37  -4.65c
iter:  16 15:33:02 -4234.815067c -8.17c -4.80c

Converged after 16 iterations.

Dipole moment: (-1.286192, -27.283612, 0.009492) |e|*Ang

Energy contributions relative to reference atoms: (reference = -2481378.197003)

Kinetic:       +421.303109
Potential:     -463.075441
External:        +0.000000
XC:            -4191.966130
Entropy (-ST):   -0.605359
Local:           -0.773924
--------------------------
Free energy:   -4235.117746
Extrapolated:  -4234.815067

Showing only first 2 kpts
 Kpt  Band  Eigenvalues  Occupancy
  0   309     -0.88988    1.86086
  0   310     -0.76705    1.59318
  0   311     -0.71084    1.38122
  0   312     -0.62259    0.96026

  1   309     -1.03781    1.96651
  1   310     -0.91376    1.88878
  1   311     -0.83340    1.76753
  1   312     -0.57476    0.72813


Fermi level: -0.63054

No gap

Forces in eV/Ang:
  0 Cu   -0.00582   -0.04606    0.02417
  1 Cu   -0.02188   -0.02434   -0.00568
  2 Cu    0.00516    0.01709    0.03037
  3 Cu    0.00154   -0.00791    0.00848
  4 Cu    0.00165   -0.01049   -0.01673
  5 Cu    0.01462    0.00645    0.00147
  6 Cu   -0.03841    0.00031    0.03829
  7 Cu    0.00271    0.05662    0.19506
  8 Cu    0.01094    0.00366   -0.01932
  9 Cu    0.02029    0.02429    0.00266
 10 Cu    0.00554    0.00691   -0.01611
 11 Cu   -0.01032   -0.07177    0.22522
 12 Cu    0.00565    0.05942    0.03069
 13 Cu    0.01759   -0.01159   -0.01490
 14 Cu    0.00104    0.00683    0.01236
 15 Cu   -0.01402    0.00114   -0.02232
 16 Cu    0.03413   -0.00315    0.03051
 17 Cu   -0.01157    0.01228   -0.02451
 18 Cu   -0.00936   -0.02788    0.02368
 19 Cu    0.02760    0.00034    0.02650
 20 Cu   -0.01992    0.01592   -0.01483
 21 Cu   -0.00850   -0.01086    0.03522
 22 Cu   -0.00370    0.00227   -0.00804
 23 Cu    0.01143    0.00266    0.00133
 24 Cu    0.01337   -0.00248   -0.01779
 25 Cu   -0.01846   -0.00279   -0.00526
 26 Cu   -0.00449    0.00367   -0.02557
 27 Cu   -0.00398    0.01747   -0.02808
 28 Cu    0.03120   -0.01618   -0.03302
 29 Cu   -0.00061    0.01155   -0.03768
 30 Cu   -0.00702    0.05852   -0.21835
 31 Cu    0.00277   -0.04544   -0.20154
 32 Cu    0.03053   -0.00402   -0.03600
 33 Cu   -0.03672    0.00104   -0.03767
 34 Cu    0.00088   -0.01043    0.01414
 35 Cu    0.00145    0.00767    0.01306
 36 Cu    0.00249    0.00738   -0.01462
 37 Cu    0.00183   -0.00798   -0.01114
 38 Cu   -0.02173   -0.01926    0.00241
 39 Cu    0.02826    0.02052    0.00336
 40 Cu    0.00060    0.04111   -0.02199
 41 Cu   -0.00846   -0.00984   -0.07233
 42 Cu   -0.00532    0.01277    0.02732
 43 Cu   -0.01010    0.00076    0.02472
 44 Cu   -0.00636   -0.00566    0.02847
 45 Cu   -0.01261    0.00472    0.02446
 46 Cu   -0.01653   -0.00123    0.00234
 47 Cu   -0.00326    0.00299    0.00343
 48 Cu    0.02325   -0.01676    0.01212
 49 Cu   -0.00108   -0.01531   -0.03733
 50 Cu    0.00732    0.00135   -0.01187
 51 Cu    0.01092   -0.02155    0.01425
 52 Cu    0.01220   -0.00213    0.01761
 53 Cu   -0.02421    0.01490    0.02234
 54 Cl    0.08466    0.03437    0.02393
 55 Cl    0.07857   -0.04698    0.00579
 56 Cl   -0.07556    0.04724    0.05544
 57 Cl   -0.09569   -0.05860   -0.04594

System changes: positions 

Initializing position-dependent things.

Density initialized from wave functions
                                     
                                     
                                     
                                     
                                     
                                     
                Cl                   
        Cl Cu    Cu     Cu           
               Cu    Cu     Cu       
         Cu     Cu    Cu             
             Cu     Cu    Cu         
       Cu     Cu    Cu               
           Cu    CCu    Cu           
         Cu    CCu   CCu    Cu       
                                     
       Cu    CCu    Cu    Cu         
           Cu    CCu    Cu           
               Cu    Cu     Cu       
         Cu     Cu    Cu             
             Cu     Cu    Cu         
       Cu     Cu    Cu               
           Cu Cl  Cu    Cu           
                   Cl                
                                     
                                     
                                     
                                     
                                     
                                     

Positions:
   0 Cu     1.852385    1.822098   10.054480    ( 0.0000,  0.0000,  0.0000)
   1 Cu     0.566213    0.509021   11.855049    ( 0.0000,  0.0000,  0.0000)
   2 Cu     3.208791    0.555623   11.833265    ( 0.0000,  0.0000,  0.0000)
   3 Cu     1.882384    1.830629   13.703950    ( 0.0000,  0.0000,  0.0000)
   4 Cu     0.580896    0.523109   15.554272    ( 0.0000,  0.0000,  0.0000)
   5 Cu     3.191661    0.524895   15.559094    ( 0.0000,  0.0000,  0.0000)
   6 Cu     1.898670    1.854516   17.404760    ( 0.0000,  0.0000,  0.0000)
   7 Cu     0.578935    0.510697   19.244631    ( 0.0000,  0.0000,  0.0000)
   8 Cu     3.214342    0.480120   19.201182    ( 0.0000,  0.0000,  0.0000)
   9 Cu     0.580090    3.154393   11.850448    ( 0.0000,  0.0000,  0.0000)
  10 Cu     0.576737    3.146998   15.546136    ( 0.0000,  0.0000,  0.0000)
  11 Cu     0.543598    3.197218   19.245458    ( 0.0000,  0.0000,  0.0000)
  12 Cu     7.148532    1.848641   10.055801    ( 0.0000,  0.0000,  0.0000)
  13 Cu     5.799385    0.537568   11.820374    ( 0.0000,  0.0000,  0.0000)
  14 Cu     7.117272    1.837911   13.702470    ( 0.0000,  0.0000,  0.0000)
  15 Cu     5.802139    0.522544   15.544324    ( 0.0000,  0.0000,  0.0000)
  16 Cu     7.113531    1.826262   17.374207    ( 0.0000,  0.0000,  0.0000)
  17 Cu     5.779747    0.518649   19.203939    ( 0.0000,  0.0000,  0.0000)
  18 Cu     4.489574    1.762783    9.928827    ( 0.0000,  0.0000,  0.0000)
  19 Cu     4.525775    4.511569    9.935635    ( 0.0000,  0.0000,  0.0000)
  20 Cu     3.200425    3.154578   11.828872    ( 0.0000,  0.0000,  0.0000)
  21 Cu     5.790035    3.136096   11.841041    ( 0.0000,  0.0000,  0.0000)
  22 Cu     4.500030    1.833176   13.699675    ( 0.0000,  0.0000,  0.0000)
  23 Cu     4.504833    4.451884   13.697883    ( 0.0000,  0.0000,  0.0000)
  24 Cu     3.197776    3.144656   15.542081    ( 0.0000,  0.0000,  0.0000)
  25 Cu     5.799656    3.142391   15.551469    ( 0.0000,  0.0000,  0.0000)
  26 Cu     4.484301    1.850129   17.432769    ( 0.0000,  0.0000,  0.0000)
  27 Cu     4.482611    4.451908   17.414547    ( 0.0000,  0.0000,  0.0000)
  28 Cu     3.228016    3.080678   19.314316    ( 0.0000,  0.0000,  0.0000)
  29 Cu     5.813768    3.140557   19.193058    ( 0.0000,  0.0000,  0.0000)
  30 Cu     1.851024    4.412398   10.000350    ( 0.0000,  0.0000,  0.0000)
  31 Cu     1.885770    7.124063    9.996825    ( 0.0000,  0.0000,  0.0000)
  32 Cu     0.576608    5.765664   11.873869    ( 0.0000,  0.0000,  0.0000)
  33 Cu     3.206673    5.744974   11.841299    ( 0.0000,  0.0000,  0.0000)
  34 Cu     1.884379    4.447654   13.703360    ( 0.0000,  0.0000,  0.0000)
  35 Cu     1.882354    7.073420   13.699532    ( 0.0000,  0.0000,  0.0000)
  36 Cu     0.579283    5.766079   15.549150    ( 0.0000,  0.0000,  0.0000)
  37 Cu     3.189923    5.756197   15.540064    ( 0.0000,  0.0000,  0.0000)
  38 Cu     1.893004    4.448382   17.415573    ( 0.0000,  0.0000,  0.0000)
  39 Cu     1.905680    7.061529   17.427385    ( 0.0000,  0.0000,  0.0000)
  40 Cu     0.546116    5.792069   19.200154    ( 0.0000,  0.0000,  0.0000)
  41 Cu     3.193446    5.809956   19.313138    ( 0.0000,  0.0000,  0.0000)
  42 Cu     7.118288    4.440777   10.058563    ( 0.0000,  0.0000,  0.0000)
  43 Cu     7.086810    7.040271   10.056867    ( 0.0000,  0.0000,  0.0000)
  44 Cu     5.789388    5.737590   11.826777    ( 0.0000,  0.0000,  0.0000)
  45 Cu     7.110682    4.450030   13.711248    ( 0.0000,  0.0000,  0.0000)
  46 Cu     7.105904    7.068227   13.690337    ( 0.0000,  0.0000,  0.0000)
  47 Cu     5.804948    5.758473   15.554385    ( 0.0000,  0.0000,  0.0000)
  48 Cu     7.124735    4.444230   17.400831    ( 0.0000,  0.0000,  0.0000)
  49 Cu     7.119908    7.071159   17.387943    ( 0.0000,  0.0000,  0.0000)
  50 Cu     5.840671    5.753543   19.203218    ( 0.0000,  0.0000,  0.0000)
  51 Cu     4.529815    7.111864   10.048502    ( 0.0000,  0.0000,  0.0000)
  52 Cu     4.510655    7.073653   13.704375    ( 0.0000,  0.0000,  0.0000)
  53 Cu     4.474757    7.050312   17.425597    ( 0.0000,  0.0000,  0.0000)
  54 Cl     3.145502    4.477899   21.190755    ( 0.0000,  0.0000,  0.0000)
  55 Cl     4.609558    3.122743    8.060472    ( 0.0000,  0.0000,  0.0000)
  56 Cl     1.839937    5.785791    8.128077    ( 0.0000,  0.0000,  0.0000)
  57 Cl     0.525636    1.825426   21.122179    ( 0.0000,  0.0000,  0.0000)

Unit cell:
           periodic     x           y           z      points  spacing
  1. axis:    yes    7.851007    0.000000    0.000000    45     0.1655
  2. axis:    yes    2.617002    7.851007    0.000000    48     0.1636
  3. axis:    yes    0.000000    0.000000   30.683867   175     0.1753

  Lengths:   7.851007   8.275688  30.683867
  Angles:   90.000000  90.000000  71.565053

Effective grid spacing dv^(1/3) = 0.1710

     iter     time        total  log10-change:
                         energy  eigst   dens
iter:   1 15:34:17 -4234.887450  -2.79
iter:   2 15:35:05 -4234.866419  -4.14  -2.92
iter:   3 15:35:54 -4234.849650c -3.86  -3.02
iter:   4 15:36:42 -4234.849631c -4.42  -3.25
iter:   5 15:37:30 -4234.846839c -5.16  -3.37
iter:   6 15:38:18 -4234.846775c -4.45  -3.48
iter:   7 15:39:06 -4234.846298c -5.68  -3.74
iter:   8 15:39:56 -4234.844874c -5.06  -3.86
iter:   9 15:40:45 -4234.844759c -6.05  -4.04c
iter:  10 15:41:35 -4234.844767c -6.26  -4.16c
iter:  11 15:42:24 -4234.844721c -6.65  -4.22c
iter:  12 15:43:14 -4234.844723c -6.62  -4.40c
iter:  13 15:44:03 -4234.844713c -7.41c -4.56c

Converged after 13 iterations.

Dipole moment: (1.000410, -27.273032, 0.002728) |e|*Ang

Energy contributions relative to reference atoms: (reference = -2481378.197003)

Kinetic:       +421.531032
Potential:     -463.298077
External:        +0.000000
XC:            -4191.999250
Entropy (-ST):   -0.605271
Local:           -0.775782
--------------------------
Free energy:   -4235.147348
Extrapolated:  -4234.844713

Showing only first 2 kpts
 Kpt  Band  Eigenvalues  Occupancy
  0   309     -0.87430    1.86026
  0   310     -0.75289    1.59623
  0   311     -0.69490    1.37765
  0   312     -0.60754    0.96053

  1   309     -1.02584    1.96752
  1   310     -0.89938    1.88953
  1   311     -0.81705    1.76495
  1   312     -0.56156    0.73692


Fermi level: -0.61544

No gap

Forces in eV/Ang:
  0 Cu   -0.00952   -0.00345    0.02180
  1 Cu   -0.03264   -0.02952   -0.02326
  2 Cu   -0.00170    0.00205    0.02402
  3 Cu   -0.00385   -0.00210   -0.00716
  4 Cu    0.00117    0.00232    0.00269
  5 Cu   -0.01190    0.00828    0.00851
  6 Cu   -0.03574    0.00030    0.04576
  7 Cu    0.00531   -0.07361   -0.00470
  8 Cu   -0.00205    0.00222   -0.02048
  9 Cu    0.03545    0.03169   -0.02066
 10 Cu    0.00161   -0.00491    0.00309
 11 Cu   -0.00442    0.05739    0.03955
 12 Cu    0.00369    0.01058    0.02567
 13 Cu    0.03383   -0.03100   -0.02809
 14 Cu    0.00439    0.00059   -0.00638
 15 Cu    0.01057    0.00881    0.00500
 16 Cu    0.03387   -0.00138    0.03523
 17 Cu    0.00265    0.01999   -0.02431
 18 Cu   -0.00555   -0.01532    0.02333
 19 Cu    0.00926   -0.01615    0.01262
 20 Cu   -0.03233    0.03342   -0.03726
 21 Cu   -0.00300   -0.00663    0.02666
 22 Cu   -0.00093    0.00183   -0.00550
 23 Cu   -0.01293    0.00629   -0.00334
 24 Cu   -0.01239   -0.00742    0.00505
 25 Cu    0.00925   -0.00503    0.01052
 26 Cu   -0.00116   -0.00001   -0.03303
 27 Cu   -0.00057    0.01177   -0.02546
 28 Cu    0.00628    0.01047   -0.00092
 29 Cu    0.01116    0.00655   -0.03126
 30 Cu   -0.00823   -0.05787   -0.03282
 31 Cu    0.00612    0.09187    0.00238
 32 Cu    0.03434    0.00194   -0.03657
 33 Cu   -0.03627   -0.00309   -0.04512
 34 Cu    0.00157    0.00383   -0.00229
 35 Cu   -0.00232   -0.00532   -0.00424
 36 Cu    0.00698    0.00046    0.00446
 37 Cu   -0.00493   -0.00170    0.00558
 38 Cu   -0.03391   -0.03026    0.03062
 39 Cu    0.02077    0.03043    0.01292
 40 Cu    0.00333   -0.00295   -0.01847
 41 Cu   -0.00989   -0.01043   -0.03831
 42 Cu    0.00708    0.01944    0.03066
 43 Cu    0.00169   -0.00722    0.02676
 44 Cu   -0.00335    0.00082    0.03140
 45 Cu    0.00842    0.00799   -0.00176
 46 Cu    0.00886   -0.00605   -0.01045
 47 Cu   -0.00181    0.00098    0.01115
 48 Cu    0.03845   -0.03470    0.03654
 49 Cu   -0.00021   -0.00610   -0.02370
 50 Cu    0.00445    0.00135   -0.01246
 51 Cu   -0.00128   -0.02314    0.02329
 52 Cu   -0.00913   -0.00542   -0.00483
 53 Cu   -0.01824    0.03769    0.02668
 54 Cl    0.07036    0.00778   -0.03019
 55 Cl    0.06603   -0.02094    0.01801
 56 Cl   -0.06936    0.01749   -0.18997
 57 Cl   -0.08728   -0.02025    0.19745

System changes: positions 

Initializing position-dependent things.

Density initialized from wave functions
                                     
                                     
                                     
                                     
                                     
                                     
                Cl                   
        Cl Cu    Cu     Cu           
               Cu    Cu     Cu       
         Cu     Cu    Cu             
       Cu    Cu     Cu    Cu         
              Cu    Cu               
           Cu    CCu    Cu           
         Cu    CCu   CCu    Cu       
                                     
       Cu    CCu    Cu    Cu         
           Cu    CCu    Cu           
                     Cu     Cu       
         Cu    CCu    Cu             
             Cu     Cu    Cu         
       Cu     Cu    Cu               
           Cu Cl  Cu    Cu           
                                     
                   Cl                
                                     
                                     
                                     
                                     
                                     

Positions:
   0 Cu     1.850861    1.814788   10.059638    ( 0.0000,  0.0000,  0.0000)
   1 Cu     0.561351    0.503680   11.853502    ( 0.0000,  0.0000,  0.0000)
   2 Cu     3.209086    0.558187   11.839678    ( 0.0000,  0.0000,  0.0000)
   3 Cu     1.881551    1.829073   13.703681    ( 0.0000,  0.0000,  0.0000)
   4 Cu     0.581333    0.522053   15.552406    ( 0.0000,  0.0000,  0.0000)
   5 Cu     3.191995    0.526363   15.560591    ( 0.0000,  0.0000,  0.0000)
   6 Cu     1.891063    1.854519   17.411791    ( 0.0000,  0.0000,  0.0000)
   7 Cu     0.580041    0.508038   19.269136    ( 0.0000,  0.0000,  0.0000)
   8 Cu     3.217216    0.480169   19.196584    ( 0.0000,  0.0000,  0.0000)
   9 Cu     0.585144    3.159939   11.850287    ( 0.0000,  0.0000,  0.0000)
  10 Cu     0.577430    3.147410   15.544403    ( 0.0000,  0.0000,  0.0000)
  11 Cu     0.542359    3.197331   19.278099    ( 0.0000,  0.0000,  0.0000)
  12 Cu     7.149567    1.858899   10.062118    ( 0.0000,  0.0000,  0.0000)
  13 Cu     5.803924    0.533522   11.817493    ( 0.0000,  0.0000,  0.0000)
  14 Cu     7.118435    1.839187   13.702923    ( 0.0000,  0.0000,  0.0000)
  15 Cu     5.801618    0.523252   15.542008    ( 0.0000,  0.0000,  0.0000)
  16 Cu     7.120317    1.825740   17.379050    ( 0.0000,  0.0000,  0.0000)
  17 Cu     5.776743    0.521429   19.197975    ( 0.0000,  0.0000,  0.0000)
  18 Cu     4.487740    1.759152    9.932664    ( 0.0000,  0.0000,  0.0000)
  19 Cu     4.531665    4.508109    9.939092    ( 0.0000,  0.0000,  0.0000)
  20 Cu     3.195539    3.159676   11.824281    ( 0.0000,  0.0000,  0.0000)
  21 Cu     5.788789    3.133787   11.848342    ( 0.0000,  0.0000,  0.0000)
  22 Cu     4.499523    1.833539   13.697214    ( 0.0000,  0.0000,  0.0000)
  23 Cu     4.504608    4.452616   13.697283    ( 0.0000,  0.0000,  0.0000)
  24 Cu     3.197983    3.144017   15.540590    ( 0.0000,  0.0000,  0.0000)
  25 Cu     5.798682    3.141861   15.552349    ( 0.0000,  0.0000,  0.0000)
  26 Cu     4.483889    1.850529   17.426757    ( 0.0000,  0.0000,  0.0000)
  27 Cu     4.482072    4.455571   17.408311    ( 0.0000,  0.0000,  0.0000)
  28 Cu     3.234033    3.082207   19.311965    ( 0.0000,  0.0000,  0.0000)
  29 Cu     5.812646    3.143262   19.185045    ( 0.0000,  0.0000,  0.0000)
  30 Cu     1.849792    4.410081    9.969715    ( 0.0000,  0.0000,  0.0000)
  31 Cu     1.886875    7.131224    9.972119    ( 0.0000,  0.0000,  0.0000)
  32 Cu     0.582982    5.765447   11.868204    ( 0.0000,  0.0000,  0.0000)
  33 Cu     3.199314    5.744606   11.834509    ( 0.0000,  0.0000,  0.0000)
  34 Cu     1.884628    4.446729   13.704885    ( 0.0000,  0.0000,  0.0000)
  35 Cu     1.882236    7.073819   13.700749    ( 0.0000,  0.0000,  0.0000)
  36 Cu     0.580667    5.767159   15.548409    ( 0.0000,  0.0000,  0.0000)
  37 Cu     3.189264    5.754792   15.539932    ( 0.0000,  0.0000,  0.0000)
  38 Cu     1.888027    4.443652   17.417611    ( 0.0000,  0.0000,  0.0000)
  39 Cu     1.909492    7.066344   17.427172    ( 0.0000,  0.0000,  0.0000)
  40 Cu     0.546985    5.798276   19.195902    ( 0.0000,  0.0000,  0.0000)
  41 Cu     3.191083    5.802868   19.304246    ( 0.0000,  0.0000,  0.0000)
  42 Cu     7.116297    4.443547   10.065417    ( 0.0000,  0.0000,  0.0000)
  43 Cu     7.083809    7.039800   10.063083    ( 0.0000,  0.0000,  0.0000)
  44 Cu     5.788396    5.736964   11.833041    ( 0.0000,  0.0000,  0.0000)
  45 Cu     7.110267    4.451008   13.714167    ( 0.0000,  0.0000,  0.0000)
  46 Cu     7.105099    7.067761   13.689302    ( 0.0000,  0.0000,  0.0000)
  47 Cu     5.804411    5.758858   15.557005    ( 0.0000,  0.0000,  0.0000)
  48 Cu     7.130386    4.439387   17.403814    ( 0.0000,  0.0000,  0.0000)
  49 Cu     7.119921    7.068343   17.380923    ( 0.0000,  0.0000,  0.0000)
  50 Cu     5.841765    5.753886   19.200529    ( 0.0000,  0.0000,  0.0000)
  51 Cu     4.532881    7.107753   10.052941    ( 0.0000,  0.0000,  0.0000)
  52 Cu     4.510924    7.073280   13.706001    ( 0.0000,  0.0000,  0.0000)
  53 Cu     4.471510    7.055490   17.428896    ( 0.0000,  0.0000,  0.0000)
  54 Cl     3.164426    4.484380   21.185469    ( 0.0000,  0.0000,  0.0000)
  55 Cl     4.626854    3.114318    8.065454    ( 0.0000,  0.0000,  0.0000)
  56 Cl     1.822684    5.793646    8.106631    ( 0.0000,  0.0000,  0.0000)
  57 Cl     0.503739    1.815424   21.145211    ( 0.0000,  0.0000,  0.0000)

Unit cell:
           periodic     x           y           z      points  spacing
  1. axis:    yes    7.851007    0.000000    0.000000    45     0.1655
  2. axis:    yes    2.617002    7.851007    0.000000    48     0.1636
  3. axis:    yes    0.000000    0.000000   30.683867   175     0.1753

  Lengths:   7.851007   8.275688  30.683867
  Angles:   90.000000  90.000000  71.565053

Effective grid spacing dv^(1/3) = 0.1710

     iter     time        total  log10-change:
                         energy  eigst   dens
iter:   1 15:45:18 -4234.875622  -2.98
iter:   2 15:46:07 -4234.873966  -4.21  -3.17
iter:   3 15:46:56 -4234.868264c -5.01  -3.20
iter:   4 15:47:45 -4234.866285c -4.46  -3.33
iter:   5 15:48:33 -4234.865321c -5.63  -3.64
iter:   6 15:49:22 -4234.865299c -5.11  -3.73
iter:   7 15:50:11 -4234.865177c -6.27  -3.94
iter:   8 15:50:59 -4234.865015c -5.84  -4.08c
iter:   9 15:51:48 -4234.865003c -6.95  -4.31c
iter:  10 15:52:36 -4234.865003c -7.08  -4.38c
iter:  11 15:53:25 -4234.865009c -6.87  -4.42c
iter:  12 15:54:14 -4234.865009c -6.67  -4.53c
iter:  13 15:55:02 -4234.865000c -7.98c -4.81c

Converged after 13 iterations.

Dipole moment: (3.749930, -27.238323, 0.005055) |e|*Ang

Energy contributions relative to reference atoms: (reference = -2481378.197003)

Kinetic:       +420.897077
Potential:     -462.804313
External:        +0.000000
XC:            -4191.870252
Entropy (-ST):   -0.604565
Local:           -0.785229
--------------------------
Free energy:   -4235.167283
Extrapolated:  -4234.865000

Showing only first 2 kpts
 Kpt  Band  Eigenvalues  Occupancy
  0   309     -0.87535    1.85888
  0   310     -0.75425    1.59382
  0   311     -0.69554    1.37139
  0   312     -0.60913    0.95798

  1   309     -1.03094    1.96847
  1   310     -0.90434    1.89249
  1   311     -0.81929    1.76526
  1   312     -0.56468    0.74170


Fermi level: -0.61754

No gap

Forces in eV/Ang:
  0 Cu   -0.00558    0.01678    0.00635
  1 Cu   -0.02003   -0.01871   -0.02620
  2 Cu   -0.00330   -0.01070    0.00402
  3 Cu   -0.00140    0.00596   -0.01558
  4 Cu    0.00081    0.01285    0.00930
  5 Cu   -0.02339    0.00672   -0.00051
  6 Cu   -0.01508    0.00291    0.04746
  7 Cu    0.00432   -0.08457   -0.06036
  8 Cu   -0.00879    0.00829   -0.01506
  9 Cu    0.02631    0.02259   -0.02889
 10 Cu   -0.00133   -0.01389    0.00974
 11 Cu    0.00014    0.07248   -0.02411
 12 Cu   -0.00317   -0.01575    0.00561
 13 Cu    0.02070   -0.02604   -0.02117
 14 Cu    0.00127   -0.00675   -0.01678
 15 Cu    0.01970    0.01462    0.01566
 16 Cu    0.02332    0.00225    0.03261
 17 Cu    0.01329    0.02203   -0.01445
 18 Cu   -0.00322   -0.01525    0.02817
 19 Cu   -0.01143   -0.01145    0.00643
 20 Cu   -0.01893    0.02654   -0.03857
 21 Cu   -0.00069    0.00305    0.00871
 22 Cu   -0.00003    0.00171    0.00588
 23 Cu   -0.02514    0.00689   -0.00010
 24 Cu   -0.02475   -0.01279    0.01576
 25 Cu    0.02369   -0.00421    0.00833
 26 Cu   -0.00502    0.00136   -0.02119
 27 Cu    0.00380    0.00059   -0.01448
 28 Cu   -0.01247   -0.00689   -0.00641
 29 Cu    0.01837   -0.00187   -0.01692
 30 Cu   -0.00594   -0.06074    0.02210
 31 Cu    0.00715    0.09047    0.04784
 32 Cu    0.02699    0.00579   -0.03262
 33 Cu   -0.01925   -0.00604   -0.04732
 34 Cu    0.00343    0.01447   -0.00963
 35 Cu   -0.00305   -0.01483   -0.01030
 36 Cu    0.00272   -0.00732    0.01280
 37 Cu   -0.00495    0.00634    0.01521
 38 Cu   -0.02339   -0.02580    0.03800
 39 Cu    0.00941    0.01859    0.01871
 40 Cu   -0.00322   -0.02319   -0.01062
 41 Cu   -0.00392    0.02322   -0.04130
 42 Cu    0.01666    0.02348    0.01801
 43 Cu    0.01271   -0.00903    0.01248
 44 Cu   -0.00473    0.00224    0.02210
 45 Cu    0.01658    0.01227   -0.01597
 46 Cu    0.02151   -0.00669   -0.00686
 47 Cu    0.00176    0.00052   -0.00045
 48 Cu    0.02920   -0.02866    0.03859
 49 Cu   -0.00083    0.00637   -0.00080
 50 Cu    0.00336    0.00418   -0.01461
 51 Cu   -0.01213   -0.02365    0.01748
 52 Cu   -0.01981   -0.01159   -0.01442
 53 Cu   -0.00781    0.03286    0.02076
 54 Cl    0.06339   -0.01480    0.01191
 55 Cl    0.06338   -0.00981    0.00803
 56 Cl   -0.06547    0.00648   -0.14268
 57 Cl   -0.08090   -0.00040    0.16173

System changes: positions 

Initializing position-dependent things.

Density initialized from wave functions
                                     
                                     
                                     
                                     
                                     
                                     
                Cl                   
        Cl Cu    Cu     Cu           
               Cu    Cu     Cu       
         Cu     Cu    Cu             
       Cu    Cu     Cu    Cu         
              Cu    Cu               
           CCu   CCu    Cu           
         Cu    CCu   CCu    Cu       
                                     
       Cu    CCu    Cu    Cu         
           Cu    CCu    Cu           
                     Cu     Cu       
         Cu    CCu    Cu             
             Cu     Cu    Cu         
       Cu     Cu    Cu               
           Cu Cl  Cu    Cu           
                                     
                   Cl                
                                     
                                     
                                     
                                     
                                     

Positions:
   0 Cu     1.848684    1.804344   10.067008    ( 0.0000,  0.0000,  0.0000)
   1 Cu     0.554406    0.496048   11.851292    ( 0.0000,  0.0000,  0.0000)
   2 Cu     3.209506    0.561850   11.848841    ( 0.0000,  0.0000,  0.0000)
   3 Cu     1.880359    1.826850   13.703298    ( 0.0000,  0.0000,  0.0000)
   4 Cu     0.581959    0.520544   15.549741    ( 0.0000,  0.0000,  0.0000)
   5 Cu     3.192472    0.528461   15.562729    ( 0.0000,  0.0000,  0.0000)
   6 Cu     1.880196    1.854524   17.421838    ( 0.0000,  0.0000,  0.0000)
   7 Cu     0.581621    0.504240   19.304147    ( 0.0000,  0.0000,  0.0000)
   8 Cu     3.221323    0.480240   19.190015    ( 0.0000,  0.0000,  0.0000)
   9 Cu     0.592364    3.167863   11.850057    ( 0.0000,  0.0000,  0.0000)
  10 Cu     0.578420    3.148000   15.541927    ( 0.0000,  0.0000,  0.0000)
  11 Cu     0.540589    3.197492   19.324735    ( 0.0000,  0.0000,  0.0000)
  12 Cu     7.151046    1.873555   10.071144    ( 0.0000,  0.0000,  0.0000)
  13 Cu     5.810410    0.527742   11.813376    ( 0.0000,  0.0000,  0.0000)
  14 Cu     7.120096    1.841010   13.703569    ( 0.0000,  0.0000,  0.0000)
  15 Cu     5.800874    0.524263   15.538701    ( 0.0000,  0.0000,  0.0000)
  16 Cu     7.130012    1.824995   17.385970    ( 0.0000,  0.0000,  0.0000)
  17 Cu     5.772452    0.525401   19.189456    ( 0.0000,  0.0000,  0.0000)
  18 Cu     4.485119    1.753965    9.938147    ( 0.0000,  0.0000,  0.0000)
  19 Cu     4.540079    4.503165    9.944030    ( 0.0000,  0.0000,  0.0000)
  20 Cu     3.188560    3.166958   11.817722    ( 0.0000,  0.0000,  0.0000)
  21 Cu     5.787009    3.130487   11.858774    ( 0.0000,  0.0000,  0.0000)
  22 Cu     4.498799    1.834057   13.693697    ( 0.0000,  0.0000,  0.0000)
  23 Cu     4.504287    4.453662   13.696426    ( 0.0000,  0.0000,  0.0000)
  24 Cu     3.198278    3.143104   15.538459    ( 0.0000,  0.0000,  0.0000)
  25 Cu     5.797290    3.141104   15.553606    ( 0.0000,  0.0000,  0.0000)
  26 Cu     4.483299    1.851100   17.418166    ( 0.0000,  0.0000,  0.0000)
  27 Cu     4.481303    4.460803   17.399401    ( 0.0000,  0.0000,  0.0000)
  28 Cu     3.242629    3.084391   19.308606    ( 0.0000,  0.0000,  0.0000)
  29 Cu     5.811044    3.147129   19.173598    ( 0.0000,  0.0000,  0.0000)
  30 Cu     1.848033    4.406771    9.925946    ( 0.0000,  0.0000,  0.0000)
  31 Cu     1.888455    7.141455    9.936821    ( 0.0000,  0.0000,  0.0000)
  32 Cu     0.592090    5.765136   11.860111    ( 0.0000,  0.0000,  0.0000)
  33 Cu     3.188801    5.744079   11.824808    ( 0.0000,  0.0000,  0.0000)
  34 Cu     1.884984    4.445408   13.707063    ( 0.0000,  0.0000,  0.0000)
  35 Cu     1.882068    7.074390   13.702487    ( 0.0000,  0.0000,  0.0000)
  36 Cu     0.582646    5.768702   15.547349    ( 0.0000,  0.0000,  0.0000)
  37 Cu     3.188322    5.752784   15.539744    ( 0.0000,  0.0000,  0.0000)
  38 Cu     1.880916    4.436894   17.420522    ( 0.0000,  0.0000,  0.0000)
  39 Cu     1.914938    7.073223   17.426867    ( 0.0000,  0.0000,  0.0000)
  40 Cu     0.548226    5.807144   19.189828    ( 0.0000,  0.0000,  0.0000)
  41 Cu     3.187707    5.792741   19.291542    ( 0.0000,  0.0000,  0.0000)
  42 Cu     7.113451    4.447504   10.075210    ( 0.0000,  0.0000,  0.0000)
  43 Cu     7.079522    7.039128   10.071965    ( 0.0000,  0.0000,  0.0000)
  44 Cu     5.786980    5.736070   11.841990    ( 0.0000,  0.0000,  0.0000)
  45 Cu     7.109675    4.452405   13.718338    ( 0.0000,  0.0000,  0.0000)
  46 Cu     7.103949    7.067095   13.687824    ( 0.0000,  0.0000,  0.0000)
  47 Cu     5.803643    5.759408   15.560748    ( 0.0000,  0.0000,  0.0000)
  48 Cu     7.138459    4.432468   17.408076    ( 0.0000,  0.0000,  0.0000)
  49 Cu     7.119939    7.064320   17.370894    ( 0.0000,  0.0000,  0.0000)
  50 Cu     5.843329    5.754375   19.196688    ( 0.0000,  0.0000,  0.0000)
  51 Cu     4.537261    7.101879   10.059284    ( 0.0000,  0.0000,  0.0000)
  52 Cu     4.511309    7.072747   13.708323    ( 0.0000,  0.0000,  0.0000)
  53 Cu     4.466873    7.062888   17.433611    ( 0.0000,  0.0000,  0.0000)
  54 Cl     3.191463    4.493639   21.177917    ( 0.0000,  0.0000,  0.0000)
  55 Cl     4.651566    3.102282    8.072573    ( 0.0000,  0.0000,  0.0000)
  56 Cl     1.798035    5.804868    8.075990    ( 0.0000,  0.0000,  0.0000)
  57 Cl     0.472453    1.801135   21.178117    ( 0.0000,  0.0000,  0.0000)

Unit cell:
           periodic     x           y           z      points  spacing
  1. axis:    yes    7.851007    0.000000    0.000000    45     0.1655
  2. axis:    yes    2.617002    7.851007    0.000000    48     0.1636
  3. axis:    yes    0.000000    0.000000   30.683867   175     0.1753

  Lengths:   7.851007   8.275688  30.683867
  Angles:   90.000000  90.000000  71.565053

Effective grid spacing dv^(1/3) = 0.1710

     iter     time        total  log10-change:
                         energy  eigst   dens
iter:   1 15:56:18 -4234.887848  -2.66
iter:   2 15:57:06 -4234.881863  -4.01  -3.08
iter:   3 15:57:55 -4234.881435c -4.56  -3.16
iter:   4 15:58:44 -4234.876133c -4.36  -3.18
iter:   5 15:59:33 -4234.874778c -5.27  -3.45
iter:   6 16:00:23 -4234.874244c -4.58  -3.57
iter:   7 16:01:11 -4234.874194c -5.90  -3.82
iter:   8 16:02:00 -4234.873472c -5.30  -3.90
iter:   9 16:02:48 -4234.873484c -6.26  -4.16c
iter:  10 16:03:36 -4234.873446c -6.20  -4.25c
iter:  11 16:04:25 -4234.873492c -6.48  -4.37c
iter:  12 16:05:14 -4234.873520c -6.82  -4.45c
iter:  13 16:06:03 -4234.873435c -6.57  -4.56c
iter:  14 16:06:52 -4234.873428c -7.48c -4.77c

Converged after 14 iterations.

Dipole moment: (7.271345, -27.180960, 0.006925) |e|*Ang

Energy contributions relative to reference atoms: (reference = -2481378.197003)

Kinetic:       +420.291945
Potential:     -462.358710
External:        +0.000000
XC:            -4191.718214
Entropy (-ST):   -0.603585
Local:           -0.786656
--------------------------
Free energy:   -4235.175220
Extrapolated:  -4234.873428

Showing only first 2 kpts
 Kpt  Band  Eigenvalues  Occupancy
  0   309     -0.87608    1.85700
  0   310     -0.75528    1.59017
  0   311     -0.69540    1.36142
  0   312     -0.61060    0.95457

  1   309     -1.03692    1.96963
  1   310     -0.91051    1.89650
  1   311     -0.82145    1.76526
  1   312     -0.56839    0.74898


Fermi level: -0.61969

No gap

Forces in eV/Ang:
  0 Cu   -0.00280    0.04424   -0.01211
  1 Cu   -0.00444   -0.00327   -0.02969
  2 Cu   -0.00721   -0.02547   -0.02080
  3 Cu   -0.00263    0.01779   -0.02599
  4 Cu   -0.00165    0.02789    0.01927
  5 Cu   -0.04188    0.00605   -0.01342
  6 Cu    0.01292    0.00944    0.05315
  7 Cu    0.00447   -0.10087   -0.13898
  8 Cu   -0.02095    0.01845   -0.00490
  9 Cu    0.01317    0.01020   -0.03787
 10 Cu   -0.00402   -0.02646    0.02117
 11 Cu    0.00556    0.09236   -0.11006
 12 Cu   -0.01027   -0.04835   -0.01689
 13 Cu    0.00611   -0.01789   -0.01419
 14 Cu    0.00137   -0.01593   -0.02989
 15 Cu    0.03634    0.02145    0.02904
 16 Cu    0.00744    0.00595    0.03094
 17 Cu    0.03059    0.02472   -0.00220
 18 Cu   -0.00091   -0.01432    0.03687
 19 Cu   -0.04044   -0.00678   -0.00270
 20 Cu   -0.00284    0.01702   -0.04199
 21 Cu    0.00531    0.01426   -0.01493
 22 Cu    0.00150    0.00190    0.02299
 23 Cu   -0.04422    0.00740    0.00641
 24 Cu   -0.04521   -0.01784    0.03024
 25 Cu    0.04616   -0.00364    0.00602
 26 Cu   -0.00931    0.00543   -0.00645
 27 Cu    0.00725   -0.01383    0.00192
 28 Cu   -0.04064   -0.03031   -0.01346
 29 Cu    0.03060   -0.01240    0.00285
 30 Cu   -0.00498   -0.06419    0.09508
 31 Cu    0.00953    0.09005    0.10993
 32 Cu    0.01555    0.00921   -0.02687
 33 Cu    0.00413   -0.01007   -0.05159
 34 Cu    0.00423    0.02852   -0.02040
 35 Cu   -0.00319   -0.02788   -0.01846
 36 Cu    0.00159   -0.01911    0.02388
 37 Cu   -0.00902    0.01759    0.02768
 38 Cu   -0.00728   -0.01978    0.04870
 39 Cu   -0.00655    0.00251    0.02657
 40 Cu   -0.00730   -0.05035    0.00080
 41 Cu   -0.00090    0.06826   -0.04783
 42 Cu    0.03262    0.02691    0.00278
 43 Cu    0.02971   -0.01158   -0.00536
 44 Cu   -0.00599    0.00238    0.01205
 45 Cu    0.03108    0.01520   -0.03487
 46 Cu    0.04123   -0.00869   -0.00102
 47 Cu    0.00597   -0.00130   -0.01564
 48 Cu    0.01822   -0.02013    0.04241
 49 Cu    0.00110    0.02066    0.03003
 50 Cu    0.00152    0.00568   -0.01806
 51 Cu   -0.02988   -0.02480    0.01007
 52 Cu   -0.03730   -0.01739   -0.02617
 53 Cu    0.00365    0.02530    0.01533
 54 Cl    0.04802   -0.04849    0.05375
 55 Cl    0.05507    0.01178   -0.00043
 56 Cl   -0.05643   -0.00963   -0.13611
 57 Cl   -0.06761    0.02763    0.17394

System changes: positions 

Initializing position-dependent things.

Density initialized from wave functions
                                     
                                     
                                     
                                     
                                     
                                     
                Cl                   
        Cl Cu    Cu     Cu           
               Cu    Cu              
         Cu     Cu    Cu    Cu       
       Cu    Cu     Cu    Cu         
              Cu    Cu               
           CCu   CCu    Cu           
         Cu    CCu   CCu    Cu       
                                     
       Cu    CCu    Cu    Cu         
           CCu   CCu    Cu           
                     Cu     Cu       
         Cu    CCu    Cu             
             Cu     Cu    Cu         
       Cu     Cu    Cu               
           Cu Cl  Cu    Cu           
                                     
                   Cl                
                                     
                                     
                                     
                                     
                                     

Positions:
   0 Cu     1.848324    1.806669   10.066250    ( 0.0000,  0.0000,  0.0000)
   1 Cu     0.554306    0.495795   11.849393    ( 0.0000,  0.0000,  0.0000)
   2 Cu     3.208957    0.560064   11.847850    ( 0.0000,  0.0000,  0.0000)
   3 Cu     1.879969    1.828247   13.700752    ( 0.0000,  0.0000,  0.0000)
   4 Cu     0.581859    0.522836   15.551053    ( 0.0000,  0.0000,  0.0000)
   5 Cu     3.188869    0.529013   15.561585    ( 0.0000,  0.0000,  0.0000)
   6 Cu     1.880596    1.855376   17.427639    ( 0.0000,  0.0000,  0.0000)
   7 Cu     0.582097    0.499300   19.298598    ( 0.0000,  0.0000,  0.0000)
   8 Cu     3.219627    0.482143   19.189272    ( 0.0000,  0.0000,  0.0000)
   9 Cu     0.593256    3.168710   11.847617    ( 0.0000,  0.0000,  0.0000)
  10 Cu     0.578144    3.145769   15.543424    ( 0.0000,  0.0000,  0.0000)
  11 Cu     0.541116    3.201696   19.322690    ( 0.0000,  0.0000,  0.0000)
  12 Cu     7.150214    1.871376   10.070049    ( 0.0000,  0.0000,  0.0000)
  13 Cu     5.810539    0.526329   11.812746    ( 0.0000,  0.0000,  0.0000)
  14 Cu     7.120426    1.839754   13.700757    ( 0.0000,  0.0000,  0.0000)
  15 Cu     5.803957    0.526098   15.540940    ( 0.0000,  0.0000,  0.0000)
  16 Cu     7.131367    1.825464   17.389507    ( 0.0000,  0.0000,  0.0000)
  17 Cu     5.775047    0.528005   19.188793    ( 0.0000,  0.0000,  0.0000)
  18 Cu     4.484825    1.752383    9.941698    ( 0.0000,  0.0000,  0.0000)
  19 Cu     4.536915    4.502256    9.943952    ( 0.0000,  0.0000,  0.0000)
  20 Cu     3.188584    3.168453   11.814217    ( 0.0000,  0.0000,  0.0000)
  21 Cu     5.787287    3.131372   11.858377    ( 0.0000,  0.0000,  0.0000)
  22 Cu     4.498863    1.834252   13.695264    ( 0.0000,  0.0000,  0.0000)
  23 Cu     4.500381    4.454241   13.696978    ( 0.0000,  0.0000,  0.0000)
  24 Cu     3.194335    3.141584   15.540952    ( 0.0000,  0.0000,  0.0000)
  25 Cu     5.801249    3.140903   15.554153    ( 0.0000,  0.0000,  0.0000)
  26 Cu     4.482377    1.851670   17.416931    ( 0.0000,  0.0000,  0.0000)
  27 Cu     4.481859    4.460115   17.398735    ( 0.0000,  0.0000,  0.0000)
  28 Cu     3.239460    3.081725   19.307318    ( 0.0000,  0.0000,  0.0000)
  29 Cu     5.813794    3.146125   19.173201    ( 0.0000,  0.0000,  0.0000)
  30 Cu     1.847598    4.404471    9.927224    ( 0.0000,  0.0000,  0.0000)
  31 Cu     1.889378    7.146216    9.939798    ( 0.0000,  0.0000,  0.0000)
  32 Cu     0.594124    5.765943   11.856843    ( 0.0000,  0.0000,  0.0000)
  33 Cu     3.188433    5.743159   11.819194    ( 0.0000,  0.0000,  0.0000)
  34 Cu     1.885392    4.447746   13.705582    ( 0.0000,  0.0000,  0.0000)
  35 Cu     1.881810    7.072045   13.701146    ( 0.0000,  0.0000,  0.0000)
  36 Cu     0.582957    5.767144   15.549586    ( 0.0000,  0.0000,  0.0000)
  37 Cu     3.187391    5.754187   15.542428    ( 0.0000,  0.0000,  0.0000)
  38 Cu     1.880625    4.435256   17.424241    ( 0.0000,  0.0000,  0.0000)
  39 Cu     1.913903    7.073212   17.428332    ( 0.0000,  0.0000,  0.0000)
  40 Cu     0.547735    5.804219   19.189649    ( 0.0000,  0.0000,  0.0000)
  41 Cu     3.187342    5.796944   19.286846    ( 0.0000,  0.0000,  0.0000)
  42 Cu     7.116275    4.450328   10.075954    ( 0.0000,  0.0000,  0.0000)
  43 Cu     7.082076    7.037891   10.071951    ( 0.0000,  0.0000,  0.0000)
  44 Cu     5.786297    5.736165   11.843814    ( 0.0000,  0.0000,  0.0000)
  45 Cu     7.112335    4.453734   13.715603    ( 0.0000,  0.0000,  0.0000)
  46 Cu     7.107472    7.066445   13.687744    ( 0.0000,  0.0000,  0.0000)
  47 Cu     5.804160    5.759329   15.559823    ( 0.0000,  0.0000,  0.0000)
  48 Cu     7.139755    4.430898   17.411050    ( 0.0000,  0.0000,  0.0000)
  49 Cu     7.120057    7.065676   17.372637    ( 0.0000,  0.0000,  0.0000)
  50 Cu     5.843547    5.754927   19.194769    ( 0.0000,  0.0000,  0.0000)
  51 Cu     4.534750    7.099084   10.060443    ( 0.0000,  0.0000,  0.0000)
  52 Cu     4.508041    7.071280   13.706209    ( 0.0000,  0.0000,  0.0000)
  53 Cu     4.467676    7.065015   17.434391    ( 0.0000,  0.0000,  0.0000)
  54 Cl     3.198133    4.490251   21.181731    ( 0.0000,  0.0000,  0.0000)
  55 Cl     4.658652    3.102227    8.073484    ( 0.0000,  0.0000,  0.0000)
  56 Cl     1.790886    5.805147    8.067543    ( 0.0000,  0.0000,  0.0000)
  57 Cl     0.463747    1.802276   21.189885    ( 0.0000,  0.0000,  0.0000)

Unit cell:
           periodic     x           y           z      points  spacing
  1. axis:    yes    7.851007    0.000000    0.000000    45     0.1655
  2. axis:    yes    2.617002    7.851007    0.000000    48     0.1636
  3. axis:    yes    0.000000    0.000000   30.683867   175     0.1753

  Lengths:   7.851007   8.275688  30.683867
  Angles:   90.000000  90.000000  71.565053

Effective grid spacing dv^(1/3) = 0.1710

     iter     time        total  log10-change:
                         energy  eigst   dens
iter:   1 16:08:09 -4234.910588  -3.39
iter:   2 16:08:58 -4234.893252  -4.50  -3.02
iter:   3 16:09:46 -4234.889766c -4.70  -3.21
iter:   4 16:10:35 -4234.888778c -4.65  -3.31
iter:   5 16:11:24 -4234.885529c -4.91  -3.39
iter:   6 16:12:13 -4234.884684c -5.04  -3.73
iter:   7 16:13:02 -4234.884696c -6.10  -3.99
iter:   8 16:13:51 -4234.884429c -5.84  -4.09c
iter:   9 16:14:40 -4234.884411c -6.66  -4.30c
iter:  10 16:15:29 -4234.884415c -6.56  -4.37c
iter:  11 16:16:19 -4234.884408c -7.69c -4.51c

Converged after 11 iterations.

Dipole moment: (8.217362, -27.166417, -0.001845) |e|*Ang

Energy contributions relative to reference atoms: (reference = -2481378.197003)

Kinetic:       +419.780218
Potential:     -461.946034
External:        +0.000000
XC:            -4191.599762
Entropy (-ST):   -0.603328
Local:           -0.817166
--------------------------
Free energy:   -4235.186071
Extrapolated:  -4234.884408

Showing only first 2 kpts
 Kpt  Band  Eigenvalues  Occupancy
  0   309     -0.88791    1.85639
  0   310     -0.76663    1.58712
  0   311     -0.70708    1.35879
  0   312     -0.62137    0.94698

  1   309     -1.04976    1.96980
  1   310     -0.92451    1.89817
  1   311     -0.83409    1.76599
  1   312     -0.58185    0.75447


Fermi level: -0.63198

No gap

Forces in eV/Ang:
  0 Cu    0.00220    0.02212   -0.01238
  1 Cu    0.00089    0.00524   -0.01756
  2 Cu   -0.00366   -0.01755   -0.01540
  3 Cu    0.00088    0.01405   -0.02112
  4 Cu   -0.00188    0.01797    0.01120
  5 Cu   -0.01970   -0.00238   -0.01342
  6 Cu    0.00842    0.00355    0.02277
  7 Cu   -0.00158   -0.01440   -0.03352
  8 Cu   -0.00517    0.00724    0.00821
  9 Cu    0.00026    0.00073   -0.02517
 10 Cu   -0.00169   -0.01365    0.00950
 11 Cu    0.00958    0.02945   -0.03744
 12 Cu   -0.01326   -0.02437   -0.01445
 13 Cu   -0.00214   -0.00093    0.00141
 14 Cu   -0.00078   -0.01008   -0.02179
 15 Cu    0.01681    0.00703    0.01845
 16 Cu    0.00160    0.00437    0.01414
 17 Cu    0.01597    0.00831    0.00839
 18 Cu    0.00034    0.00105    0.01402
 19 Cu   -0.02066   -0.01079   -0.01129
 20 Cu    0.00496   -0.00182   -0.01701
 21 Cu    0.00559    0.01216   -0.01300
 22 Cu   -0.00015    0.00319    0.01566
 23 Cu   -0.02235   -0.00286    0.01199
 24 Cu   -0.02278   -0.00527    0.01730
 25 Cu    0.02340    0.00385   -0.00203
 26 Cu    0.00203    0.00216   -0.00232
 27 Cu    0.00862   -0.01264    0.00690
 28 Cu   -0.02336    0.00504    0.01997
 29 Cu    0.00405   -0.00520    0.01736
 30 Cu   -0.00227   -0.02298    0.04376
 31 Cu    0.00513    0.03077    0.04075
 32 Cu    0.00561    0.00580   -0.00958
 33 Cu    0.00711   -0.00713   -0.02426
 34 Cu    0.00195    0.01458   -0.00881
 35 Cu    0.00158   -0.01540   -0.00656
 36 Cu   -0.00290   -0.01425    0.02154
 37 Cu   -0.00367    0.01157    0.02385
 38 Cu    0.00396   -0.00606    0.02794
 39 Cu   -0.01274   -0.00323    0.00920
 40 Cu   -0.00518   -0.02493    0.00889
 41 Cu    0.00552    0.00238    0.01901
 42 Cu    0.00760    0.01002   -0.00441
 43 Cu    0.01025   -0.00491   -0.01061
 44 Cu    0.00054   -0.00074   -0.00087
 45 Cu    0.01526    0.00360   -0.02153
 46 Cu    0.01912    0.00030    0.00843
 47 Cu    0.00602    0.00034   -0.01228
 48 Cu    0.00211   -0.00153    0.01454
 49 Cu    0.00058    0.01773    0.02090
 50 Cu   -0.00728    0.00435   -0.00940
 51 Cu   -0.00894   -0.00807   -0.00101
 52 Cu   -0.01955   -0.00695   -0.01294
 53 Cu    0.00996    0.00846   -0.00732
 54 Cl    0.05187   -0.02653   -0.03710
 55 Cl    0.05308    0.00197    0.01809
 56 Cl   -0.04954    0.00087   -0.03005
 57 Cl   -0.05990    0.00465    0.00764

System changes: positions 

Initializing position-dependent things.

Density initialized from wave functions
                                     
                                     
                                     
                                     
                                     
                                     
                 Cl                  
        Cl Cu    Cu     Cu           
               Cu    Cu     Cu       
         Cu     Cu    Cu             
        Cu   Cu     Cu    Cu         
              Cu    Cu               
           CCu   CCu    Cu           
         Cu    CCu   CCu    Cu       
                                     
        Cu   CCu    Cu    Cu         
           CCu   CCu    Cu           
                     Cu     Cu       
         Cu    CCu    Cu             
             Cu     Cu    Cu         
       Cu     Cu    Cu               
           Cu Cl  Cu    Cu           
                                     
                   Cl                
                                     
                                     
                                     
                                     
                                     

Positions:
   0 Cu     1.848544    1.810253   10.064197    ( 0.0000,  0.0000,  0.0000)
   1 Cu     0.554499    0.496581   11.846370    ( 0.0000,  0.0000,  0.0000)
   2 Cu     3.208288    0.557012   11.845454    ( 0.0000,  0.0000,  0.0000)
   3 Cu     1.879998    1.830763   13.696749    ( 0.0000,  0.0000,  0.0000)
   4 Cu     0.581545    0.526156   15.553011    ( 0.0000,  0.0000,  0.0000)
   5 Cu     3.184955    0.528767   15.559184    ( 0.0000,  0.0000,  0.0000)
   6 Cu     1.881737    1.856142   17.433109    ( 0.0000,  0.0000,  0.0000)
   7 Cu     0.581965    0.497541   19.294262    ( 0.0000,  0.0000,  0.0000)
   8 Cu     3.218332    0.483870   19.190328    ( 0.0000,  0.0000,  0.0000)
   9 Cu     0.593430    3.168998   11.843315    ( 0.0000,  0.0000,  0.0000)
  10 Cu     0.577846    3.143124   15.545158    ( 0.0000,  0.0000,  0.0000)
  11 Cu     0.542756    3.205641   19.318859    ( 0.0000,  0.0000,  0.0000)
  12 Cu     7.147946    1.867604   10.067618    ( 0.0000,  0.0000,  0.0000)
  13 Cu     5.810111    0.525909   11.812974    ( 0.0000,  0.0000,  0.0000)
  14 Cu     7.120417    1.837891   13.696599    ( 0.0000,  0.0000,  0.0000)
  15 Cu     5.807289    0.527624   15.544297    ( 0.0000,  0.0000,  0.0000)
  16 Cu     7.132208    1.826246   17.393003    ( 0.0000,  0.0000,  0.0000)
  17 Cu     5.778287    0.530117   19.189867    ( 0.0000,  0.0000,  0.0000)
  18 Cu     4.484754    1.752024    9.944900    ( 0.0000,  0.0000,  0.0000)
  19 Cu     4.532917    4.500346    9.942232    ( 0.0000,  0.0000,  0.0000)
  20 Cu     3.189461    3.168491   11.810762    ( 0.0000,  0.0000,  0.0000)
  21 Cu     5.788168    3.133390   11.856513    ( 0.0000,  0.0000,  0.0000)
  22 Cu     4.498831    1.834815   13.697993    ( 0.0000,  0.0000,  0.0000)
  23 Cu     4.495953    4.453900   13.699026    ( 0.0000,  0.0000,  0.0000)
  24 Cu     3.189835    3.140401   15.544214    ( 0.0000,  0.0000,  0.0000)
  25 Cu     5.805819    3.141498   15.553943    ( 0.0000,  0.0000,  0.0000)
  26 Cu     4.482443    1.852171   17.416022    ( 0.0000,  0.0000,  0.0000)
  27 Cu     4.483325    4.458116   17.399408    ( 0.0000,  0.0000,  0.0000)
  28 Cu     3.235029    3.081790   19.310100    ( 0.0000,  0.0000,  0.0000)
  29 Cu     5.815243    3.145041   19.175691    ( 0.0000,  0.0000,  0.0000)
  30 Cu     1.847121    4.401809    9.932065    ( 0.0000,  0.0000,  0.0000)
  31 Cu     1.890416    7.150737    9.944654    ( 0.0000,  0.0000,  0.0000)
  32 Cu     0.595749    5.767045   11.854107    ( 0.0000,  0.0000,  0.0000)
  33 Cu     3.189187    5.741820   11.813542    ( 0.0000,  0.0000,  0.0000)
[...]

Kinetic:       +423.256978
Potential:     -464.278605
External:        +0.000000
XC:            -4192.991887
Entropy (-ST):   -0.595352
Local:           -0.846091
--------------------------
Free energy:   -4235.454957
Extrapolated:  -4235.157281

Showing only first 2 kpts
 Kpt  Band  Eigenvalues  Occupancy
  0   309     -0.64372    1.87445
  0   310     -0.49136    1.52979
  0   311     -0.42227    1.23965
  0   312     -0.38020    1.03405

  1   309     -0.76204    1.95979
  1   310     -0.65204    1.88388
  1   311     -0.51551    1.61108
  1   312     -0.31152    0.70019


Fermi level: -0.37339

No gap

Forces in eV/Ang:
  0 Cu   -0.00113   -0.00268    0.00545
  1 Cu    0.00817    0.00644    0.00666
  2 Cu   -0.00058    0.01060   -0.00215
  3 Cu   -0.00801    0.00148   -0.01050
  4 Cu    0.00518    0.00017   -0.00383
  5 Cu    0.00866   -0.00034    0.00134
  6 Cu   -0.00211   -0.00492   -0.01122
  7 Cu    0.01257   -0.00318   -0.00849
  8 Cu   -0.00445   -0.00145    0.00744
  9 Cu   -0.01099    0.00144   -0.00557
 10 Cu    0.00308   -0.00070   -0.00121
 11 Cu    0.00554    0.00004   -0.00895
 12 Cu    0.00587    0.00809   -0.00231
 13 Cu   -0.00502   -0.00425    0.00397
 14 Cu    0.00400   -0.00226    0.00111
 15 Cu    0.00079    0.00510    0.00086
 16 Cu    0.00328    0.00358    0.00035
 17 Cu   -0.00545   -0.00752   -0.01217
 18 Cu   -0.00042    0.00892   -0.00217
 19 Cu   -0.00374    0.00906    0.00471
 20 Cu    0.00569   -0.00740    0.01594
 21 Cu    0.00071   -0.01177   -0.00067
 22 Cu   -0.00383   -0.00231    0.00489
 23 Cu   -0.00123    0.00046   -0.00619
 24 Cu    0.00229   -0.00789    0.00942
 25 Cu   -0.00230    0.00154   -0.00705
 26 Cu    0.00146   -0.00325    0.01511
 27 Cu    0.00067    0.00405    0.00027
 28 Cu    0.00016   -0.00145   -0.01009
 29 Cu    0.00384    0.00604   -0.00615
 30 Cu    0.00294   -0.00701    0.00478
 31 Cu    0.01080    0.00018    0.00289
 32 Cu   -0.00231    0.00192   -0.00867
 33 Cu   -0.00707   -0.00296    0.00282
 34 Cu   -0.01406   -0.00219   -0.00379
 35 Cu    0.00018    0.00613    0.00178
 36 Cu   -0.00029   -0.00090    0.00193
 37 Cu    0.00245   -0.00119    0.00344
 38 Cu   -0.00289   -0.00234   -0.00197
 39 Cu   -0.00115    0.00063   -0.00295
 40 Cu    0.00559   -0.00666    0.00038
 41 Cu   -0.00989    0.00162   -0.01427
 42 Cu    0.00700   -0.01232    0.00444
 43 Cu   -0.00503   -0.00773   -0.00703
 44 Cu    0.00166    0.00353   -0.00513
 45 Cu   -0.00404    0.00288    0.00053
 46 Cu   -0.00700    0.00178    0.00344
 47 Cu   -0.00110    0.00552    0.00492
 48 Cu    0.00316    0.00086    0.00111
 49 Cu   -0.00391   -0.00618   -0.00156
 50 Cu    0.00211    0.00374    0.00590
 51 Cu    0.00272    0.00358   -0.00093
 52 Cu    0.00454   -0.00137   -0.00095
 53 Cu   -0.00591    0.00230   -0.00049
 54 Cl    0.02859    0.00824    0.01232
 55 Cl   -0.00655   -0.01209   -0.01560
 56 Cl   -0.02458    0.01593   -0.00328
 57 Cl    0.00174   -0.01667    0.01170

System changes: positions 

Initializing position-dependent things.

Density initialized from wave functions
                                        
                                        
                                        
                                        
                                        
                                        
                      Cl                
        Cl    Cu    Cu     Cu           
                  Cu    Cu     Cu       
            Cu    Cu     Cu             
          Cu    CCu    Cu    Cu         
                                        
              Cu    CCu    Cu           
            Cu    Cu    CCu    Cu       
                                        
          Cu    CCu    Cu    Cu         
              Cu    CCu    Cu           
                                        
            Cu    Cu    CCu    Cu       
                Cu     Cu    Cu         
          Cu     Cu    Cu               
              Cu     Cu    Cu           
                         Cl             
                                        
                                        
                                        
                                        
                                        
                                        

Positions:
   0 Cu     1.876421    1.819969   10.051518    ( 0.0000,  0.0000,  0.0000)
   1 Cu     0.540179    0.520269   11.810727    ( 0.0000,  0.0000,  0.0000)
   2 Cu     3.227098    0.535170   11.820593    ( 0.0000,  0.0000,  0.0000)
   3 Cu     1.882809    1.824906   13.674034    ( 0.0000,  0.0000,  0.0000)
   4 Cu     0.578114    0.534491   15.556011    ( 0.0000,  0.0000,  0.0000)
   5 Cu     3.188545    0.537059   15.548561    ( 0.0000,  0.0000,  0.0000)
   6 Cu     1.872374    1.857408   17.415974    ( 0.0000,  0.0000,  0.0000)
   7 Cu     0.623960    0.523285   19.259238    ( 0.0000,  0.0000,  0.0000)
   8 Cu     3.199473    0.530237   19.175419    ( 0.0000,  0.0000,  0.0000)
   9 Cu     0.561817    3.154532   11.838175    ( 0.0000,  0.0000,  0.0000)
  10 Cu     0.580677    3.149619   15.534601    ( 0.0000,  0.0000,  0.0000)
  11 Cu     0.577322    3.190728   19.241233    ( 0.0000,  0.0000,  0.0000)
  12 Cu     7.155626    1.822709    9.990441    ( 0.0000,  0.0000,  0.0000)
  13 Cu     5.814682    0.531317   11.819515    ( 0.0000,  0.0000,  0.0000)
  14 Cu     7.121476    1.827489   13.699579    ( 0.0000,  0.0000,  0.0000)
  15 Cu     5.802697    0.511957   15.542397    ( 0.0000,  0.0000,  0.0000)
  16 Cu     7.099708    1.842757   17.379531    ( 0.0000,  0.0000,  0.0000)
  17 Cu     5.769275    0.492693   19.263123    ( 0.0000,  0.0000,  0.0000)
  18 Cu     4.447549    1.816068    9.978965    ( 0.0000,  0.0000,  0.0000)
  19 Cu     4.487972    4.499573    9.993392    ( 0.0000,  0.0000,  0.0000)
  20 Cu     3.196437    3.164277   11.816273    ( 0.0000,  0.0000,  0.0000)
  21 Cu     5.820686    3.156004   11.858238    ( 0.0000,  0.0000,  0.0000)
  22 Cu     4.500354    1.846974   13.687082    ( 0.0000,  0.0000,  0.0000)
  23 Cu     4.501122    4.467382   13.699580    ( 0.0000,  0.0000,  0.0000)
  24 Cu     3.184470    3.139006   15.538898    ( 0.0000,  0.0000,  0.0000)
  25 Cu     5.805526    3.144976   15.532568    ( 0.0000,  0.0000,  0.0000)
  26 Cu     4.518325    1.853327   17.404235    ( 0.0000,  0.0000,  0.0000)
  27 Cu     4.501707    4.445751   17.381039    ( 0.0000,  0.0000,  0.0000)
  28 Cu     3.157708    3.098767   19.254391    ( 0.0000,  0.0000,  0.0000)
  29 Cu     5.801472    3.155551   19.264189    ( 0.0000,  0.0000,  0.0000)
  30 Cu     1.905176    4.401839    9.987131    ( 0.0000,  0.0000,  0.0000)
  31 Cu     1.938184    7.085167    9.978097    ( 0.0000,  0.0000,  0.0000)
  32 Cu     0.577873    5.752971   11.864980    ( 0.0000,  0.0000,  0.0000)
  33 Cu     3.198328    5.754371   11.815877    ( 0.0000,  0.0000,  0.0000)
  34 Cu     1.894140    4.449032   13.697443    ( 0.0000,  0.0000,  0.0000)
  35 Cu     1.892329    7.065067   13.691538    ( 0.0000,  0.0000,  0.0000)
  36 Cu     0.575169    5.762590   15.549968    ( 0.0000,  0.0000,  0.0000)
  37 Cu     3.187763    5.762751   15.552171    ( 0.0000,  0.0000,  0.0000)
  38 Cu     1.880712    4.445689   17.415897    ( 0.0000,  0.0000,  0.0000)
  39 Cu     1.896933    7.078814   17.428475    ( 0.0000,  0.0000,  0.0000)
  40 Cu     0.545625    5.758094   19.181111    ( 0.0000,  0.0000,  0.0000)
  41 Cu     3.136046    5.786172   19.259154    ( 0.0000,  0.0000,  0.0000)
  42 Cu     7.119207    4.464025    9.984922    ( 0.0000,  0.0000,  0.0000)
  43 Cu     7.097848    7.083403   10.004770    ( 0.0000,  0.0000,  0.0000)
  44 Cu     5.824302    5.753607   11.835876    ( 0.0000,  0.0000,  0.0000)
  45 Cu     7.119861    4.457227   13.714249    ( 0.0000,  0.0000,  0.0000)
  46 Cu     7.116869    7.079158   13.692355    ( 0.0000,  0.0000,  0.0000)
  47 Cu     5.808709    5.786856   15.550992    ( 0.0000,  0.0000,  0.0000)
  48 Cu     7.090488    4.440114   17.401884    ( 0.0000,  0.0000,  0.0000)
  49 Cu     7.121042    7.080572   17.414995    ( 0.0000,  0.0000,  0.0000)
  50 Cu     5.828743    5.799503   19.235538    ( 0.0000,  0.0000,  0.0000)
  51 Cu     4.524121    7.089607   10.042452    ( 0.0000,  0.0000,  0.0000)
  52 Cu     4.496655    7.084224   13.680632    ( 0.0000,  0.0000,  0.0000)
  53 Cu     4.477447    7.070043   17.421150    ( 0.0000,  0.0000,  0.0000)
  54 Cl     4.302376    4.488155   20.983757    ( 0.0000,  0.0000,  0.0000)
  55 Cl     5.771891    2.994778    8.271028    ( 0.0000,  0.0000,  0.0000)
  56 Cl     0.705270    5.847581    8.251104    ( 0.0000,  0.0000,  0.0000)
  57 Cl    -0.671391    1.709281   20.980844    ( 0.0000,  0.0000,  0.0000)

Unit cell:
           periodic     x           y           z      points  spacing
  1. axis:    yes    7.851007    0.000000    0.000000    45     0.1655
  2. axis:    yes    2.617002    7.851007    0.000000    48     0.1636
  3. axis:    yes    0.000000    0.000000   30.683867   175     0.1753

  Lengths:   7.851007   8.275688  30.683867
  Angles:   90.000000  90.000000  71.565053

Effective grid spacing dv^(1/3) = 0.1710

     iter     time        total  log10-change:
                         energy  eigst   dens
iter:   1 21:15:07 -4235.184822  -3.27
iter:   2 21:16:04 -4235.178363  -4.06  -3.04
iter:   3 21:17:00 -4235.162479c -4.77  -3.11
iter:   4 21:17:57 -4235.161094c -5.64  -3.40
iter:   5 21:18:53 -4235.160743c -4.68  -3.52
iter:   6 21:19:48 -4235.160213c -5.41  -3.82
iter:   7 21:20:44 -4235.160300c -5.79  -4.00c
iter:   8 21:21:39 -4235.160273c -6.81  -4.14c
iter:   9 21:22:36 -4235.160182c -5.97  -4.23c
iter:  10 21:23:32 -4235.160177c -7.00  -4.46c
iter:  11 21:24:28 -4235.160149c -6.66  -4.50c
iter:  12 21:25:23 -4235.160146c -7.47c -4.75c

Converged after 12 iterations.

Dipole moment: (-10.187054, -26.591973, -0.002616) |e|*Ang

Energy contributions relative to reference atoms: (reference = -2481378.197003)

Kinetic:       +423.509879
Potential:     -464.461759
External:        +0.000000
XC:            -4193.071089
Entropy (-ST):   -0.594411
Local:           -0.839972
--------------------------
Free energy:   -4235.457351
Extrapolated:  -4235.160146

Showing only first 2 kpts
 Kpt  Band  Eigenvalues  Occupancy
  0   309     -0.64195    1.87366
  0   310     -0.49063    1.53112
  0   311     -0.42128    1.24020
  0   312     -0.37977    1.03738

  1   309     -0.75715    1.95827
  1   310     -0.65257    1.88566
  1   311     -0.51946    1.62663
  1   312     -0.30779    0.68826


Fermi level: -0.37229

No gap

Forces in eV/Ang:
  0 Cu   -0.00775   -0.00307   -0.00399
  1 Cu    0.00647    0.00522    0.00154
  2 Cu    0.00534    0.00145   -0.00286
  3 Cu   -0.00433    0.01098   -0.00714
  4 Cu    0.00367   -0.00041   -0.00359
  5 Cu    0.00674    0.00485   -0.00354
  6 Cu    0.00828   -0.00552    0.00072
  7 Cu    0.00832   -0.00360   -0.00785
  8 Cu   -0.00255    0.00014    0.02267
  9 Cu   -0.00019    0.00615   -0.00840
 10 Cu   -0.00227   -0.00119    0.00295
 11 Cu   -0.00115   -0.00013   -0.00487
 12 Cu   -0.00032    0.00520   -0.01382
 13 Cu   -0.00431   -0.00650   -0.00540
 14 Cu   -0.00632    0.00423   -0.00452
 15 Cu    0.00578    0.00802    0.00426
 16 Cu    0.00749    0.00125    0.01366
 17 Cu    0.00565   -0.00478   -0.00058
 18 Cu   -0.00128    0.01746   -0.00431
 19 Cu    0.00266    0.01075    0.00519
 20 Cu    0.00897   -0.00814    0.01365
 21 Cu   -0.00888   -0.01011   -0.00082
 22 Cu    0.00074   -0.00048    0.00637
 23 Cu   -0.00271    0.00263   -0.00042
 24 Cu    0.00413   -0.00599    0.00836
 25 Cu   -0.00169    0.00195   -0.00846
 26 Cu   -0.00798   -0.00115    0.01379
 27 Cu   -0.00604    0.00861    0.00232
 28 Cu    0.00528   -0.00257   -0.01603
 29 Cu    0.00679    0.00407    0.00391
 30 Cu   -0.00921    0.00083    0.00662
 31 Cu    0.00142   -0.00956   -0.00668
 32 Cu   -0.00163    0.00733   -0.01819
 33 Cu   -0.00449   -0.00622   -0.00174
 34 Cu   -0.01472    0.00014   -0.00743
 35 Cu   -0.00102   -0.00691    0.00459
 36 Cu    0.00314    0.00158    0.00693
 37 Cu    0.00004   -0.00684    0.00550
 38 Cu    0.00364   -0.00521    0.00006
 39 Cu    0.00101    0.00426    0.00393
 40 Cu    0.00698   -0.00894    0.01114
 41 Cu   -0.00106   -0.00889   -0.00811
 42 Cu    0.01062   -0.00951   -0.00117
 43 Cu    0.00351   -0.01252   -0.01882
 44 Cu   -0.00397    0.00182   -0.00315
 45 Cu   -0.00833    0.00588   -0.01103
 46 Cu   -0.00227   -0.00309    0.00051
 47 Cu   -0.00530    0.00254    0.00240
 48 Cu    0.00551    0.00338    0.00532
 49 Cu   -0.01122   -0.00975   -0.00006
 50 Cu   -0.00175    0.01264    0.01623
 51 Cu    0.00651    0.00061   -0.00197
 52 Cu    0.00449   -0.00710    0.00251
 53 Cu   -0.00901    0.00114    0.00722
 54 Cl    0.00421    0.00836   -0.00032
 55 Cl   -0.00157    0.00198   -0.01937
 56 Cl   -0.00364    0.00796    0.01456
 57 Cl   -0.00461    0.00702    0.00686

Timing:                                      incl.     excl.
-------------------------------------------------------------------
Density initialized from wave functions:   135.644   135.642   0.6% |
 Symmetrize density:                         0.002     0.002   0.0% |
Forces:                                    636.666   636.666   2.6% ||
Hamiltonian:                               250.420     0.568   0.0% |
 Atomic:                                     7.922     2.097   0.0% |
  XC Correction:                             5.824     5.824   0.0% |
 Calculate atomic Hamiltonians:             52.535    52.535   0.2% |
 Communicate:                                7.913     7.913   0.0% |
 Initialize Hamiltonian:                     0.001     0.001   0.0% |
 Poisson:                                    0.157     0.157   0.0% |
 XC 3D grid:                               181.325    26.561   0.1% |
  VdW-DF integral:                         154.764     5.070   0.0% |
   Convolution:                             10.324    10.324   0.0% |
   FFT:                                      5.739     5.739   0.0% |
   gather:                                  47.310    47.310   0.2% |
   hmm1:                                     3.227     3.227   0.0% |
   hmm2:                                     8.092     8.092   0.0% |
   iFFT:                                     6.023     6.023   0.0% |
   potential:                               63.120     0.603   0.0% |
    collect:                                 8.098     8.098   0.0% |
    p1:                                     34.280    34.280   0.1% |
    p2:                                     11.129    11.129   0.0% |
    sum:                                     9.010     9.010   0.0% |
   splines:                                  5.858     5.858   0.0% |
LCAO initialization:                       203.741     0.747   0.0% |
 LCAO eigensolver:                          12.095     0.001   0.0% |
  Blacs Orbital Layouts:                     0.584     0.000   0.0% |
   General diagonalize:                      0.575     0.575   0.0% |
   Redistribute coefs:                       0.005     0.005   0.0% |
   Send coefs to domains:                    0.004     0.004   0.0% |
  Calculate projections:                     0.005     0.005   0.0% |
  Distribute overlap matrix:                11.295     0.000   0.0% |
   Scalapack redistribute:                   0.008     0.008   0.0% |
   blocked summation:                       11.286    11.286   0.0% |
  Potential matrix:                          0.126     0.126   0.0% |
  SparseAtomicCorrection:                    0.009     0.009   0.0% |
  Sum over cells:                            0.076     0.076   0.0% |
 LCAO to grid:                             188.122   188.122   0.8% |
 Set positions (LCAO WFS):                   2.778     0.009   0.0% |
  Basic WFS set positions:                   0.003     0.003   0.0% |
  Basis functions set positions:             0.000     0.000   0.0% |
  P tci:                                     0.000     0.000   0.0% |
  ST tci:                                    0.485     0.485   0.0% |
  Scalapack redistribute:                    0.014     0.014   0.0% |
  blocked summation:                         2.094     2.094   0.0% |
  mktci:                                     0.172     0.172   0.0% |
PWDescriptor:                                0.711     0.711   0.0% |
Redistribute:                                0.033     0.033   0.0% |
SCF-cycle:                               23184.592   273.766   1.1% |
 Davidson:                               17944.672  4713.806  19.1% |-------|
  Apply H:                                1771.570  1745.457   7.1% |--|
   HMM T:                                   26.113    26.113   0.1% |
  Subspace diag:                          3039.020     0.092   0.0% |
   calc_h_matrix:                         2209.070   462.690   1.9% ||
    Apply H:                              1746.380  1719.247   7.0% |--|
     HMM T:                                 27.134    27.134   0.1% |
   diagonalize:                             81.048    81.048   0.3% |
   rotate_psi:                             748.810   748.810   3.0% ||
  calc. matrices:                         6504.799  3020.275  12.3% |----|
   Apply H:                               3484.524  3432.495  13.9% |-----|
    HMM T:                                  52.029    52.029   0.2% |
  diagonalize:                             500.645   500.645   2.0% ||
  rotate_psi:                             1414.831  1414.831   5.7% |-|
 Density:                                 1753.914     0.022   0.0% |
  Atomic density matrices:                   6.352     6.352   0.0% |
  Mix:                                     827.949   827.949   3.4% ||
  Multipole moments:                         0.514     0.514   0.0% |
  Pseudo density:                          919.077   919.057   3.7% ||
   Symmetrize density:                       0.020     0.020   0.0% |
 Hamiltonian:                             3078.228     7.440   0.0% |
  Atomic:                                   95.416    21.508   0.1% |
   XC Correction:                           73.908    73.908   0.3% |
  Calculate atomic Hamiltonians:           675.884   675.884   2.7% ||
  Communicate:                              92.101    92.101   0.4% |
  Poisson:                                   1.954     1.954   0.0% |
  XC 3D grid:                             2205.433   331.370   1.3% ||
   VdW-DF integral:                       1874.063    60.016   0.2% |
    Convolution:                           121.725   121.725   0.5% |
    FFT:                                    70.805    70.805   0.3% |
    gather:                                611.854   611.854   2.5% ||
    hmm1:                                   38.381    38.381   0.2% |
    hmm2:                                   98.534    98.534   0.4% |
    iFFT:                                   73.291    73.291   0.3% |
    potential:                             799.454     7.575   0.0% |
     collect:                              104.331   104.331   0.4% |
     p1:                                   433.298   433.298   1.8% ||
     p2:                                   138.664   138.664   0.6% |
     sum:                                  115.586   115.586   0.5% |
    splines:                                 0.004     0.004   0.0% |
 Orthonormalize:                           134.012     0.012   0.0% |
  calc_s_matrix:                            16.735    16.735   0.1% |
  inverse-cholesky:                          3.847     3.847   0.0% |
  projections:                              85.048    85.048   0.3% |
  rotate_psi_s:                             28.369    28.369   0.1% |
Set symmetry:                                0.001     0.001   0.0% |
Other:                                     214.786   214.786   0.9% |
-------------------------------------------------------------------
Total:                                             24626.594 100.0%

Memory usage: 1.32 GiB
Date: Mon Oct 17 21:25:45 2022
