
  ___ ___ ___ _ _ _  
 |   |   |_  | | | | 
 | | | | | . | | | | 
 |__ |  _|___|_____|  22.1.0
 |___|_|             

User:   thorkong@node025.cluster
Date:   Mon Oct 17 14:50:49 2022
Arch:   x86_64
Pid:    93005
Python: 3.10.5
gpaw:   /groups/kemi/thorkong/miniconda3/envs/gpaw22/lib/python3.10/site-packages/gpaw
_gpaw:  /groups/kemi/thorkong/miniconda3/envs/gpaw22/lib/python3.10/site-packages/
        _gpaw.cpython-310-x86_64-linux-gnu.so
ase:    /groups/kemi/thorkong/miniconda3/envs/gpaw22/lib/python3.10/site-packages/ase (version 3.22.1)
numpy:  /groups/kemi/thorkong/miniconda3/envs/gpaw22/lib/python3.10/site-packages/numpy (version 1.23.0)
scipy:  /groups/kemi/thorkong/miniconda3/envs/gpaw22/lib/python3.10/site-packages/scipy (version 1.8.1)
libxc:  5.2.3
units:  Angstrom and eV
cores: 32
OpenMP: True
OMP_NUM_THREADS: 1

Input parameters:
  basis: dzp
  kpts: [4 4 1]
  mode: {ecut: 600.0,
         name: pw}
  xc: BEEF-vdW

System changes: positions, numbers, cell, pbc, initial_charges, initial_magmoms 

Initialize ...

Cu-setup:
  name: Copper
  id: f1c4d45d90492f1bbfdcb091e8418fdf
  Z: 29.0
  valence: 11
  core: 18
  charge: 0.0
  file: /groups/kemi/thorkong/miniconda3/envs/gpaw22/share/gpaw/Cu.PBE.gz
  compensation charges: gauss, rc=0.33, lmax=2
  cutoffs: 2.06(filt), 2.43(core),
  valence states:
                energy  radius
    4s(1.00)    -4.609   1.164
    4p(0.00)    -0.698   1.164
    3d(10.00)    -5.039   1.058
    *s          22.603   1.164
    *p          26.513   1.164
    *d          22.172   1.058

  LCAO basis set for Cu:
    Name: dzp
    File: /groups/kemi/thorkong/miniconda3/envs/gpaw22/share/gpaw/Cu.dzp.basis.gz
    Number of radial functions: 5
    Number of spherical harmonics: 15
      l=0, rc=8.9688 Bohr: 4s-sz confined orbital
      l=2, rc=5.1719 Bohr: 3d-sz confined orbital
      l=0, rc=5.3281 Bohr: 4s-dz split-valence wave
      l=2, rc=3.1406 Bohr: 3d-dz split-valence wave
      l=1, rc=8.9688 Bohr: p-type Gaussian polarization

Cl-setup:
  name: Chlorine
  id: 726897f06f34e53cf8e33b5885a02604
  Z: 17.0
  valence: 7
  core: 10
  charge: 0.0
  file: /groups/kemi/thorkong/miniconda3/envs/gpaw22/share/gpaw/Cl.PBE.gz
  compensation charges: gauss, rc=0.25, lmax=2
  cutoffs: 1.40(filt), 1.49(core),
  valence states:
                energy  radius
    3s(2.00)   -20.689   0.794
    3p(5.00)    -8.594   0.794
    *s           6.523   0.794
    *p          18.617   0.794
    *d           0.000   0.794

  LCAO basis set for Cl:
    Name: dzp
    File: /groups/kemi/thorkong/miniconda3/envs/gpaw22/share/gpaw/Cl.dzp.basis.gz
    Number of radial functions: 5
    Number of spherical harmonics: 13
      l=0, rc=5.1719 Bohr: 3s-sz confined orbital
      l=1, rc=6.2656 Bohr: 3p-sz confined orbital
      l=0, rc=2.8281 Bohr: 3s-dz split-valence wave
      l=1, rc=3.5156 Bohr: 3p-dz split-valence wave
      l=2, rc=6.2656 Bohr: d-type Gaussian polarization

Reference energy: -2657147.488543

Spin-paired calculation

Convergence criteria:
 Maximum [total energy] change in last 3 cyles: 0.0005 eV / electron
 Maximum integral of absolute [dens]ity change: 0.0001 electrons / valence electron
 Maximum integral of absolute [eigenst]ate change: 4e-08 eV^2 / valence electron
 Maximum number of scf [iter]ations: 333
 (Square brackets indicate name in SCF output, whereas a 'c' in
 the SCF output indicates the quantity has converged.)

Symmetries present (total): 1

  ( 1  0  0)
  ( 0  1  0)
  ( 0  0  1)

16 k-points: 4 x 4 x 1 Monkhorst-Pack grid
8 k-points in the irreducible part of the Brillouin zone
       k-points in crystal coordinates                weights
   0:     0.12500000   -0.37500000    0.00000000          2/16
   1:     0.12500000   -0.12500000    0.00000000          2/16
   2:     0.12500000    0.12500000    0.00000000          2/16
   3:     0.12500000    0.37500000    0.00000000          2/16
   4:     0.37500000   -0.37500000    0.00000000          2/16
   5:     0.37500000   -0.12500000    0.00000000          2/16
   6:     0.37500000    0.12500000    0.00000000          2/16
   7:     0.37500000    0.37500000    0.00000000          2/16

Wave functions: Plane wave expansion
  Cutoff energy: 600.000 eV
  Number of coefficients (min, max): 63070, 63184
  Pulay-stress correction: 0.000000 eV/Ang^3 (de/decut=0.000000)
  Using FFTW library
  ScaLapack parameters: grid=2x2, blocksize=64
  Wavefunction extrapolation:
    Improved wavefunction reuse through dual PAW basis 

Occupation numbers: Fermi-Dirac: width=0.1000 eV
 

Eigensolver
   Davidson(niter=2) 

Densities:
  Coarse grid: 45*48*175 grid
  Fine grid: 90*96*350 grid
  Total Charge: 0.000000 

Density mixing:
  Method: separate
  Backend: pulay
  Linear mixing parameter: 0.05
  Mixing with 5 old densities
  Damping of long wave oscillations: 50 

Hamiltonian:
  XC and Coulomb potentials evaluated on a 90*96*350 grid
  Using the BEEF-vdW Exchange-Correlation functional
  External potential:
    NoExternalPotential
 

XC parameters: BEEF-vdW with 2 nearest neighbor stencil

Memory estimate:
  Process memory now: 254.54 MiB
  Calculator: 953.69 MiB
    Density: 47.05 MiB
      Arrays: 18.85 MiB
      Localized functions: 20.94 MiB
      Mixer: 7.25 MiB
    Hamiltonian: 12.84 MiB
      Arrays: 12.33 MiB
      XC: 0.00 MiB
      Poisson: 0.00 MiB
      vbar: 0.51 MiB
    Wavefunctions: 893.80 MiB
      Arrays psit_nG: 420.35 MiB
      Eigensolver: 454.19 MiB
      Projections: 2.01 MiB
      Projectors: 2.41 MiB
      PW-descriptor: 14.84 MiB

Total number of cores used: 32
Parallelization over k-points: 8
Domain decomposition: 1 x 1 x 4
                      2 x 2 x 8 (xc only)

Number of atoms: 72
Number of atomic orbitals: 1044
Number of bands in calculation: 436
Number of valence electrons: 720
Bands to converge: occupied

... initialized

Initializing position-dependent things.

Density initialized from atomic densities
Creating initial wave functions:
  436 bands from LCAO basis set

                                     
                                     
                                     
                                     
            Cl    Cl    Cl           
                                     
          Cl    Cl     Cl            
        Cl Cu  ClCu  Cl Cu           
                                     
         Cu    Cu    CCu    Cu       
       Cu    Cu    Cu     Cu         
              Cu    Cu               
           Cu    CCu    Cu           
         Cu    Cu    CCu    Cu       
                                     
       Cu    CCu   CCu    Cu         
           Cu    CCu   CCu           
                                     
         Cu    Cu    CCu    Cu       
             Cu     Cu    Cu         
       Cu     Cu    Cu               
           Cu Cl  CuCl  Cu Cl        
            Cl           Cl          
                   Cl                
          Cl     Cl    Cl            
                                     
                                     
                                     
                                     

Positions:
   0 Cu     1.851874    1.842086   10.044767    ( 0.0000,  0.0000,  0.0000)
   1 Cu     0.572048    0.518337   11.854739    ( 0.0000,  0.0000,  0.0000)
   2 Cu     3.208369    0.549454   11.826759    ( 0.0000,  0.0000,  0.0000)
   3 Cu     1.885044    1.836608   13.699605    ( 0.0000,  0.0000,  0.0000)
   4 Cu     0.579320    0.526826   15.560947    ( 0.0000,  0.0000,  0.0000)
   5 Cu     3.185437    0.522508   15.555968    ( 0.0000,  0.0000,  0.0000)
   6 Cu     1.901068    1.854575   17.424612    ( 0.0000,  0.0000,  0.0000)
   7 Cu     0.575906    0.561899   19.206760    ( 0.0000,  0.0000,  0.0000)
   8 Cu     3.188310    0.488633   19.210481    ( 0.0000,  0.0000,  0.0000)
   9 Cu     0.574574    3.144633   11.846476    ( 0.0000,  0.0000,  0.0000)
  10 Cu     0.575916    3.143785   15.552326    ( 0.0000,  0.0000,  0.0000)
  11 Cu     0.546349    3.145891   19.206137    ( 0.0000,  0.0000,  0.0000)
  12 Cu     7.147069    1.821677   10.043621    ( 0.0000,  0.0000,  0.0000)
  13 Cu     5.794000    0.540777   11.820405    ( 0.0000,  0.0000,  0.0000)
  14 Cu     7.114080    1.831917   13.694773    ( 0.0000,  0.0000,  0.0000)
  15 Cu     5.808982    0.523918   15.556714    ( 0.0000,  0.0000,  0.0000)
  16 Cu     7.113100    1.827061   17.396972    ( 0.0000,  0.0000,  0.0000)
  17 Cu     5.807880    0.526790   19.217827    ( 0.0000,  0.0000,  0.0000)
  18 Cu     4.494064    1.763231    9.932089    ( 0.0000,  0.0000,  0.0000)
  19 Cu     4.496146    4.525263    9.931071    ( 0.0000,  0.0000,  0.0000)
  20 Cu     3.207669    3.147945   11.830838    ( 0.0000,  0.0000,  0.0000)
  21 Cu     5.791432    3.139321   11.831411    ( 0.0000,  0.0000,  0.0000)
  22 Cu     4.501104    1.833097   13.705422    ( 0.0000,  0.0000,  0.0000)
  23 Cu     4.500286    4.451342   13.700374    ( 0.0000,  0.0000,  0.0000)
  24 Cu     3.191019    3.143173   15.550169    ( 0.0000,  0.0000,  0.0000)
  25 Cu     5.806714    3.142761   15.552225    ( 0.0000,  0.0000,  0.0000)
  26 Cu     4.483820    1.848780   17.430757    ( 0.0000,  0.0000,  0.0000)
  27 Cu     4.483576    4.446716   17.420218    ( 0.0000,  0.0000,  0.0000)
  28 Cu     3.195113    3.070202   19.320757    ( 0.0000,  0.0000,  0.0000)
  29 Cu     5.840799    3.127025   19.209886    ( 0.0000,  0.0000,  0.0000)
  30 Cu     1.850636    4.467419   10.041562    ( 0.0000,  0.0000,  0.0000)
  31 Cu     1.883456    7.067453   10.032493    ( 0.0000,  0.0000,  0.0000)
  32 Cu     0.578168    5.767618   11.853682    ( 0.0000,  0.0000,  0.0000)
  33 Cu     3.207330    5.746015   11.820678    ( 0.0000,  0.0000,  0.0000)
  34 Cu     1.884398    4.451712   13.698510    ( 0.0000,  0.0000,  0.0000)
  35 Cu     1.882140    7.070634   13.694193    ( 0.0000,  0.0000,  0.0000)
  36 Cu     0.577138    5.762455   15.555937    ( 0.0000,  0.0000,  0.0000)
  37 Cu     3.190200    5.761333   15.545038    ( 0.0000,  0.0000,  0.0000)
  38 Cu     1.899950    4.455283   17.419419    ( 0.0000,  0.0000,  0.0000)
  39 Cu     1.897387    7.053708   17.430112    ( 0.0000,  0.0000,  0.0000)
  40 Cu     0.544416    5.772752   19.207193    ( 0.0000,  0.0000,  0.0000)
  41 Cu     3.197353    5.832220   19.317966    ( 0.0000,  0.0000,  0.0000)
  42 Cu     7.144990    4.448863   10.045121    ( 0.0000,  0.0000,  0.0000)
  43 Cu     7.115261    7.033008   10.044024    ( 0.0000,  0.0000,  0.0000)
  44 Cu     5.790284    5.740371   11.826573    ( 0.0000,  0.0000,  0.0000)
  45 Cu     7.115409    4.450638   13.698320    ( 0.0000,  0.0000,  0.0000)
  46 Cu     7.111993    7.067752   13.689826    ( 0.0000,  0.0000,  0.0000)
  47 Cu     5.806194    5.757852   15.551058    ( 0.0000,  0.0000,  0.0000)
  48 Cu     7.116689    4.449777   17.404260    ( 0.0000,  0.0000,  0.0000)
  49 Cu     7.119110    7.076103   17.395949    ( 0.0000,  0.0000,  0.0000)
  50 Cu     5.839650    5.752596   19.206190    ( 0.0000,  0.0000,  0.0000)
  51 Cu     4.502840    7.106124   10.040718    ( 0.0000,  0.0000,  0.0000)
  52 Cu     4.505854    7.072213   13.694900    ( 0.0000,  0.0000,  0.0000)
  53 Cu     4.482985    7.045347   17.423899    ( 0.0000,  0.0000,  0.0000)
  54 Cl     3.111134    4.453599   21.202893    ( 0.0000,  0.0000,  0.0000)
  55 Cl     4.580310    3.143724    8.048163    ( 0.0000,  0.0000,  0.0000)
  56 Cl     1.867046    5.767436    8.237027    ( 0.0000,  0.0000,  0.0000)
  57 Cl     0.561128    1.853895   21.006449    ( 0.0000,  0.0000,  0.0000)
  58 Cl     5.840224    7.039810   21.008038    ( 0.0000,  0.0000,  0.0000)
  59 Cl     7.093286    0.367959    8.057112    ( 0.0000,  0.0000,  0.0000)
  60 Cl     7.130126    5.740935    8.244573    ( 0.0000,  0.0000,  0.0000)
  61 Cl     5.824339    1.826908   21.013856    ( 0.0000,  0.0000,  0.0000)
  62 Cl     0.561128    7.353895   21.006449    ( 0.0000,  0.0000,  0.0000)
  63 Cl     1.699919    0.405738    8.070012    ( 0.0000,  0.0000,  0.0000)
  64 Cl     4.498586    5.754186    8.240800    ( 0.0000,  0.0000,  0.0000)
  65 Cl     3.192734    1.840401   21.010153    ( 0.0000,  0.0000,  0.0000)
  66 Cl     5.832282    4.433359   21.010947    ( 0.0000,  0.0000,  0.0000)
  67 Cl     1.783482    3.086587    8.153520    ( 0.0000,  0.0000,  0.0000)
  68 Cl     4.396602    0.386848    8.063562    ( 0.0000,  0.0000,  0.0000)
  69 Cl     3.200676    7.196853   21.007243    ( 0.0000,  0.0000,  0.0000)
  70 Cl     0.561128    4.603895   21.006449    ( 0.0000,  0.0000,  0.0000)
  71 Cl     7.111706    3.054447    8.150842    ( 0.0000,  0.0000,  0.0000)

Unit cell:
           periodic     x           y           z      points  spacing
  1. axis:    yes    7.851007    0.000000    0.000000    45     0.1655
  2. axis:    yes    2.617002    7.851007    0.000000    48     0.1636
  3. axis:    yes    0.000000    0.000000   30.683867   175     0.1753

  Lengths:   7.851007   8.275688  30.683867
  Angles:   90.000000  90.000000  71.565053

Effective grid spacing dv^(1/3) = 0.1710

     iter     time        total  log10-change:
                         energy  eigst   dens
iter:   1 14:56:59 -5339.004899
iter:   2 14:57:54 -5009.819458  +1.24  -0.63
iter:   3 14:58:49 -4852.558315  +0.60  -0.85
iter:   4 14:59:44 -4781.182058  -0.45  -1.08
iter:   5 15:00:39 -4750.021017  -1.17  -1.30
iter:   6 15:01:34 -4724.189024  -1.32  -1.41
iter:   7 15:02:30 -4727.441766  -2.01  -1.55
iter:   8 15:03:25 -4742.096184  -1.98  -1.51
iter:   9 15:04:21 -4743.942350  -1.49  -1.44
iter:  10 15:05:17 -4722.891472  -1.53  -1.58
iter:  11 15:06:13 -4721.136289  -2.14  -1.61
iter:  12 15:07:04 -4725.532657  -2.46  -1.68
iter:  13 15:07:59 -4722.847258  -3.40  -1.58
iter:  14 15:08:55 -4722.140070  -3.21  -1.62
iter:  15 15:09:51 -4734.040820  -1.87  -1.65
iter:  16 15:10:47 -4720.617246  -2.53  -1.54
iter:  17 15:11:41 -4723.285556  -2.64  -1.89
iter:  18 15:12:37 -4720.792572  -2.52  -1.77
iter:  19 15:13:33 -4720.171671  -3.31  -2.02
iter:  20 15:14:28 -4720.083733  -3.90  -2.20
iter:  21 15:15:24 -4720.214112c -3.04  -2.25
iter:  22 15:16:20 -4720.034330c -4.07  -2.26
iter:  23 15:17:15 -4719.880461c -3.68  -2.43
iter:  24 15:18:11 -4719.846238c -3.96  -2.70
iter:  25 15:19:07 -4719.838257c -3.98  -2.84
iter:  26 15:20:02 -4719.834574c -4.78  -2.93
iter:  27 15:20:57 -4719.832172c -4.88  -3.02
iter:  28 15:21:53 -4719.826691c -5.29  -3.05
iter:  29 15:22:48 -4719.825295c -4.90  -3.26
iter:  30 15:23:44 -4719.825339c -6.06  -3.41
iter:  31 15:24:40 -4719.824874c -6.28  -3.47
iter:  32 15:25:35 -4719.824917c -5.86  -3.55
iter:  33 15:26:31 -4719.824670c -6.35  -3.67
iter:  34 15:27:25 -4719.824677c -6.41  -3.73
iter:  35 15:28:17 -4719.824460c -6.85  -3.75
iter:  36 15:29:13 -4719.824211c -6.58  -3.91
iter:  37 15:30:09 -4719.824302c -7.42c -4.10c

Converged after 37 iterations.

Dipole moment: (-13.790920, -46.443391, 0.058759) |e|*Ang

Energy contributions relative to reference atoms: (reference = -2657147.488543)

Kinetic:       +773.547416
Potential:     -737.322561
External:        +0.000000
XC:            -4755.152365
Entropy (-ST):   -0.938096
Local:           -0.427744
--------------------------
Free energy:   -4720.293350
Extrapolated:  -4719.824302

Showing only first 2 kpts
 Kpt  Band  Eigenvalues  Occupancy
  0   358      0.95949    1.06003
  0   359      1.01290    0.79592
  0   360      1.08930    0.47083
  0   361      1.10407    0.41977

  1   358      1.03132    0.70953
  1   359      1.05895    0.58865
  1   360      1.10593    0.41364
  1   361      1.12650    0.35018


Fermi level: 0.97151

No gap

Forces in eV/Ang:
  0 Cu    0.25474   -0.18514    0.61432
  1 Cu   -0.00118    0.01576    0.12924
  2 Cu   -0.05634   -0.07057    0.17902
  3 Cu    0.00714   -0.00505    0.04204
  4 Cu   -0.01071   -0.00997   -0.07292
  5 Cu    0.01621    0.01618   -0.02779
  6 Cu   -0.05977   -0.07293   -0.29824
  7 Cu    0.03788    0.11877   -1.84504
  8 Cu   -0.02874    0.11384   -1.34950
  9 Cu   -0.00954    0.01755    0.26283
 10 Cu    0.01219    0.00812   -0.04378
 11 Cu    0.20744    0.25460   -1.10978
 12 Cu   -0.24223   -0.21457    0.65995
 13 Cu    0.05736   -0.04467    0.19796
 14 Cu   -0.00306    0.01478    0.09714
 15 Cu   -0.00593    0.00319   -0.06342
 16 Cu    0.00121    0.01275   -0.24199
 17 Cu    0.00072    0.56827   -3.11120
 18 Cu   -0.03268    0.29666    0.67991
 19 Cu   -0.01886   -1.35585    2.09660
 20 Cu    0.06245    0.00636   -0.01259
 21 Cu   -0.06965    0.01376   -0.01508
 22 Cu   -0.00569   -0.00124    0.05415
 23 Cu   -0.00472   -0.00298    0.04810
 24 Cu    0.00381    0.00169   -0.05556
 25 Cu   -0.01324    0.00092   -0.03769
 26 Cu    0.06416   -0.05068   -0.31483
 27 Cu   -0.07929    0.01116   -0.00843
 28 Cu   -0.00161    1.34062   -2.15614
 29 Cu   -0.21793    0.17199   -1.47113
 30 Cu    0.22637   -0.40090    0.92560
 31 Cu   -0.03944    0.35700    1.31108
 32 Cu   -0.00450   -0.00839    0.24282
 33 Cu   -0.06481    0.04071    0.30962
 34 Cu    0.01290    0.00158    0.02535
 35 Cu    0.00730   -0.00437    0.06264
 36 Cu    0.00593   -0.01485   -0.07589
 37 Cu    0.00737    0.00139   -0.04635
 38 Cu    0.08758   -0.00858   -0.00845
 39 Cu   -0.05388    0.02866   -0.30481
 40 Cu    0.22205    0.41313   -1.36868
 41 Cu   -0.01211   -0.91071   -1.34095
 42 Cu   -0.18218   -0.38136    0.98707
 43 Cu   -0.00773    0.44101    1.11555
 44 Cu    0.05024    0.06800    0.29287
 45 Cu   -0.01279   -0.00298    0.04009
 46 Cu    0.00899    0.00949    0.07963
 47 Cu   -0.01025    0.00356   -0.02811
 48 Cu   -0.00153    0.00344   -0.30396
 49 Cu   -0.00283   -0.03030   -0.22960
 50 Cu   -0.22686   -0.05702   -1.43151
 51 Cu    0.04507    0.25636    1.06675
 52 Cu   -0.01586   -0.01394    0.03316
 53 Cu    0.05562    0.07178   -0.28695
 54 Cl    0.67609    0.55302    1.09872
 55 Cl   -0.98063   -0.57820   -0.82366
 56 Cl    0.24909   -1.05953   -1.45938
 57 Cl    0.20878    1.24479    1.74608
 58 Cl   -0.26610   -0.26068    1.73645
 59 Cl   -1.18758    1.26480   -1.10630
 60 Cl   -0.16655   -0.97622   -1.41750
 61 Cl   -0.17655    1.50842    2.07947
 62 Cl    0.25022   -2.36479    2.75231
 63 Cl    1.11792    0.91838   -1.00818
 64 Cl    0.03541    0.28093   -2.20067
 65 Cl    0.01711   -0.87949    2.32910
 66 Cl   -0.78174   -0.58751    1.65941
 67 Cl    1.18732    0.09084   -0.91975
 68 Cl   -0.07480    1.29954   -0.98384
 69 Cl    0.01441   -1.25874    2.10236
 70 Cl    0.06473    0.06576    1.60253
 71 Cl   -0.14519   -0.09034   -0.98649

System changes: positions 

Initializing position-dependent things.

Density initialized from wave functions
                                     
                                     
                                     
                                     
            Cl    Cl    Cl           
                                     
          Cl    Cl     Cl            
        Cl Cu  ClCu  Cl Cu           
                                     
         Cu    Cu    CCu    Cu       
             Cu    Cu     Cu         
       Cu     Cu    Cu               
           Cu    CCu    Cu           
         Cu    Cu    CCu    Cu       
                                     
       Cu    CCu    Cu    Cu         
           Cu    CCu    Cu           
               Cu    Cu     Cu       
         Cu    Cu     Cu             
             Cu    Cu     Cu         
       Cu     Cu    Cu               
           Cu Cl  CuCl  Cu Cl        
            Cl           Cl          
                   Cl                
          Cl     Cl    Cl            
                                     
                                     
                                     
                                     

Positions:
   0 Cu     1.865881    1.831906   10.078546    ( 0.0000,  0.0000,  0.0000)
   1 Cu     0.571983    0.519204   11.861845    ( 0.0000,  0.0000,  0.0000)
   2 Cu     3.205271    0.545574   11.836603    ( 0.0000,  0.0000,  0.0000)
   3 Cu     1.885437    1.836331   13.701916    ( 0.0000,  0.0000,  0.0000)
   4 Cu     0.578731    0.526278   15.556937    ( 0.0000,  0.0000,  0.0000)
   5 Cu     3.186328    0.523398   15.554440    ( 0.0000,  0.0000,  0.0000)
   6 Cu     1.897782    1.850565   17.408213    ( 0.0000,  0.0000,  0.0000)
   7 Cu     0.577989    0.568430   19.105309    ( 0.0000,  0.0000,  0.0000)
   8 Cu     3.186730    0.494893   19.136278    ( 0.0000,  0.0000,  0.0000)
   9 Cu     0.574049    3.145598   11.860928    ( 0.0000,  0.0000,  0.0000)
  10 Cu     0.576586    3.144232   15.549919    ( 0.0000,  0.0000,  0.0000)
  11 Cu     0.557755    3.159890   19.145115    ( 0.0000,  0.0000,  0.0000)
  12 Cu     7.133750    1.809879   10.079909    ( 0.0000,  0.0000,  0.0000)
  13 Cu     5.797154    0.538321   11.831290    ( 0.0000,  0.0000,  0.0000)
  14 Cu     7.113912    1.832730   13.700114    ( 0.0000,  0.0000,  0.0000)
  15 Cu     5.808656    0.524094   15.553227    ( 0.0000,  0.0000,  0.0000)
  16 Cu     7.113167    1.827762   17.383666    ( 0.0000,  0.0000,  0.0000)
  17 Cu     5.807919    0.558037   19.046756    ( 0.0000,  0.0000,  0.0000)
  18 Cu     4.492267    1.779543    9.969474    ( 0.0000,  0.0000,  0.0000)
  19 Cu     4.495109    4.450711   10.046354    ( 0.0000,  0.0000,  0.0000)
  20 Cu     3.211103    3.148295   11.830146    ( 0.0000,  0.0000,  0.0000)
  21 Cu     5.787602    3.140077   11.830582    ( 0.0000,  0.0000,  0.0000)
  22 Cu     4.500791    1.833029   13.708399    ( 0.0000,  0.0000,  0.0000)
  23 Cu     4.500027    4.451178   13.703019    ( 0.0000,  0.0000,  0.0000)
  24 Cu     3.191228    3.143266   15.547114    ( 0.0000,  0.0000,  0.0000)
  25 Cu     5.805986    3.142812   15.550152    ( 0.0000,  0.0000,  0.0000)
  26 Cu     4.487348    1.845993   17.413446    ( 0.0000,  0.0000,  0.0000)
  27 Cu     4.479216    4.447330   17.419754    ( 0.0000,  0.0000,  0.0000)
  28 Cu     3.195025    3.143917   19.202200    ( 0.0000,  0.0000,  0.0000)
  29 Cu     5.828816    3.136482   19.128995    ( 0.0000,  0.0000,  0.0000)
  30 Cu     1.863083    4.445375   10.092456    ( 0.0000,  0.0000,  0.0000)
  31 Cu     1.881287    7.087083   10.104583    ( 0.0000,  0.0000,  0.0000)
  32 Cu     0.577921    5.767157   11.867034    ( 0.0000,  0.0000,  0.0000)
  33 Cu     3.203766    5.748253   11.837703    ( 0.0000,  0.0000,  0.0000)
  34 Cu     1.885107    4.451799   13.699904    ( 0.0000,  0.0000,  0.0000)
  35 Cu     1.882541    7.070394   13.697638    ( 0.0000,  0.0000,  0.0000)
  36 Cu     0.577464    5.761639   15.551764    ( 0.0000,  0.0000,  0.0000)
  37 Cu     3.190605    5.761410   15.542489    ( 0.0000,  0.0000,  0.0000)
  38 Cu     1.904766    4.454811   17.418954    ( 0.0000,  0.0000,  0.0000)
  39 Cu     1.894424    7.055284   17.413352    ( 0.0000,  0.0000,  0.0000)
  40 Cu     0.556626    5.795468   19.131935    ( 0.0000,  0.0000,  0.0000)
  41 Cu     3.196687    5.782144   19.244233    ( 0.0000,  0.0000,  0.0000)
  42 Cu     7.134973    4.427894   10.099396    ( 0.0000,  0.0000,  0.0000)
  43 Cu     7.114836    7.057257   10.105363    ( 0.0000,  0.0000,  0.0000)
  44 Cu     5.793047    5.744110   11.842676    ( 0.0000,  0.0000,  0.0000)
  45 Cu     7.114706    4.450474   13.700524    ( 0.0000,  0.0000,  0.0000)
  46 Cu     7.112487    7.068274   13.694204    ( 0.0000,  0.0000,  0.0000)
  47 Cu     5.805630    5.758048   15.549513    ( 0.0000,  0.0000,  0.0000)
  48 Cu     7.116605    4.449966   17.387547    ( 0.0000,  0.0000,  0.0000)
  49 Cu     7.118954    7.074437   17.383325    ( 0.0000,  0.0000,  0.0000)
  50 Cu     5.827176    5.749461   19.127478    ( 0.0000,  0.0000,  0.0000)
  51 Cu     4.505318    7.120220   10.099374    ( 0.0000,  0.0000,  0.0000)
  52 Cu     4.504982    7.071446   13.696723    ( 0.0000,  0.0000,  0.0000)
  53 Cu     4.486043    7.049294   17.408121    ( 0.0000,  0.0000,  0.0000)
  54 Cl     3.148309    4.484007   21.263307    ( 0.0000,  0.0000,  0.0000)
  55 Cl     4.526389    3.111931    8.002873    ( 0.0000,  0.0000,  0.0000)
  56 Cl     1.880742    5.709177    8.156782    ( 0.0000,  0.0000,  0.0000)
  57 Cl     0.572607    1.922340   21.102458    ( 0.0000,  0.0000,  0.0000)
  58 Cl     5.825593    7.025477   21.103518    ( 0.0000,  0.0000,  0.0000)
  59 Cl     7.027986    0.437504    7.996282    ( 0.0000,  0.0000,  0.0000)
  60 Cl     7.120968    5.687257    8.166630    ( 0.0000,  0.0000,  0.0000)
  61 Cl     5.814632    1.909849   21.128197    ( 0.0000,  0.0000,  0.0000)
  62 Cl     0.574886    7.223865   21.157786    ( 0.0000,  0.0000,  0.0000)
  63 Cl     1.761388    0.456236    8.014577    ( 0.0000,  0.0000,  0.0000)
  64 Cl     4.500533    5.769633    8.119795    ( 0.0000,  0.0000,  0.0000)
  65 Cl     3.193674    1.792042   21.138219    ( 0.0000,  0.0000,  0.0000)
  66 Cl     5.789298    4.401055   21.102191    ( 0.0000,  0.0000,  0.0000)
  67 Cl     1.848768    3.091582    8.102947    ( 0.0000,  0.0000,  0.0000)
  68 Cl     4.392489    0.458304    8.009465    ( 0.0000,  0.0000,  0.0000)
  69 Cl     3.201468    7.127640   21.122843    ( 0.0000,  0.0000,  0.0000)
  70 Cl     0.564687    4.607511   21.094564    ( 0.0000,  0.0000,  0.0000)
  71 Cl     7.103722    3.049480    8.096600    ( 0.0000,  0.0000,  0.0000)

Unit cell:
           periodic     x           y           z      points  spacing
  1. axis:    yes    7.851007    0.000000    0.000000    45     0.1655
  2. axis:    yes    2.617002    7.851007    0.000000    48     0.1636
  3. axis:    yes    0.000000    0.000000   30.683867   175     0.1753

  Lengths:   7.851007   8.275688  30.683867
  Angles:   90.000000  90.000000  71.565053

Effective grid spacing dv^(1/3) = 0.1710

     iter     time        total  log10-change:
                         energy  eigst   dens
iter:   1 15:31:40 -4801.197422  -0.38
iter:   2 15:32:37 -4753.017442  -0.56  -1.31
iter:   3 15:33:35 -4760.281734  -1.50  -1.49
iter:   4 15:34:32 -4729.512825  -2.26  -1.44
iter:   5 15:35:30 -4731.257151  -2.95  -1.72
iter:   6 15:36:27 -4726.730963  -2.17  -1.69
iter:   7 15:37:24 -4726.078086  -2.47  -1.97
iter:   8 15:38:21 -4725.713527  -3.29  -1.88
iter:   9 15:39:18 -4723.680626  -2.32  -1.89
iter:  10 15:40:14 -4724.246608  -2.99  -2.34
iter:  11 15:41:10 -4723.514866  -3.40  -2.10
iter:  12 15:42:06 -4723.460528  -3.37  -2.38
iter:  13 15:43:03 -4723.287089c -4.07  -2.42
iter:  14 15:43:59 -4723.332022c -4.10  -2.72
iter:  15 15:44:56 -4723.303105c -3.90  -2.60
iter:  16 15:45:52 -4723.262996c -4.89  -2.73
iter:  17 15:46:49 -4723.257875c -4.97  -3.00
iter:  18 15:47:46 -4723.255159c -5.00  -3.14
iter:  19 15:48:42 -4723.252121c -4.87  -3.18
iter:  20 15:49:39 -4723.253158c -4.86  -3.25
iter:  21 15:50:36 -4723.249279c -5.76  -3.29
iter:  22 15:51:32 -4723.248964c -5.96  -3.72
iter:  23 15:52:29 -4723.249352c -6.29  -3.81
iter:  24 15:53:25 -4723.249006c -5.88  -3.79
iter:  25 15:54:22 -4723.249132c -6.59  -4.01c
iter:  26 15:55:18 -4723.249052c -7.44c -4.09c

Converged after 26 iterations.

Dipole moment: (-14.745359, -45.162856, 0.003218) |e|*Ang

Energy contributions relative to reference atoms: (reference = -2657147.488543)

Kinetic:       +711.697845
Potential:     -690.087862
External:        +0.000000
XC:            -4743.708821
Entropy (-ST):   -0.988147
Local:           -0.656140
--------------------------
Free energy:   -4723.743125
Extrapolated:  -4723.249052

Showing only first 2 kpts
 Kpt  Band  Eigenvalues  Occupancy
  0   358      0.85975    0.95400
  0   359      0.94268    0.56936
  0   360      0.94938    0.54247
  0   361      0.99439    0.38356

  1   358      0.84443    1.03054
  1   359      0.88054    0.85111
  1   360      0.91764    0.67654
  1   361      0.97762    0.43825


Fermi level: 0.85054

No gap

Forces in eV/Ang:
  0 Cu    0.07761   -0.02527    0.15494
  1 Cu    0.01209    0.07208    0.27966
  2 Cu   -0.01546    0.00427    0.32077
  3 Cu    0.01185   -0.00226    0.05076
  4 Cu   -0.00641   -0.00906   -0.09842
  5 Cu    0.00922    0.01110   -0.06830
  6 Cu   -0.00430    0.00383   -0.42230
  7 Cu   -0.02250   -0.12553    0.15588
  8 Cu    0.03010    0.14983   -0.07084
  9 Cu   -0.00166   -0.04978    0.29279
 10 Cu    0.02140    0.01468   -0.06578
 11 Cu    0.11808    0.09188   -0.14074
 12 Cu   -0.11781   -0.01414    0.13619
 13 Cu    0.00251    0.03389    0.34514
 14 Cu   -0.00743    0.01509    0.08658
 15 Cu   -0.00336   -0.00026   -0.09172
 16 Cu    0.11476    0.17992   -0.52472
 17 Cu    0.00221   -0.18140    0.39795
 18 Cu    0.00386    0.19291    0.36699
 19 Cu    0.02204   -0.15882    0.14375
 20 Cu   -0.01297   -0.09557    0.23103
 21 Cu   -0.00104   -0.08807    0.21939
 22 Cu   -0.00651    0.00474    0.05139
 23 Cu   -0.00241   -0.01409    0.06011
 24 Cu   -0.00084    0.01454   -0.07223
 25 Cu   -0.01819    0.01121   -0.06007
 26 Cu   -0.10654    0.07714   -0.55013
 27 Cu   -0.01967    0.05440   -0.34071
 28 Cu   -0.02922    0.11265   -0.02927
 29 Cu   -0.11144    0.06649   -0.27194
 30 Cu    0.11454   -0.07108    0.25174
 31 Cu   -0.00152   -0.01506    0.03599
 32 Cu   -0.01433   -0.04129    0.26163
 33 Cu   -0.04064    0.04108    0.32674
 34 Cu    0.01533   -0.00873    0.04563
 35 Cu    0.00647    0.00519    0.07894
 36 Cu    0.01176   -0.02137   -0.09270
 37 Cu    0.00710   -0.01144   -0.06506
 38 Cu   -0.00799    0.04048   -0.29327
 39 Cu    0.06905   -0.06746   -0.48438
 40 Cu    0.10740    0.02214   -0.12135
 41 Cu   -0.02939   -0.19566   -0.34031
 42 Cu   -0.11308   -0.06509    0.21792
 43 Cu   -0.00716    0.03274    0.01543
 44 Cu    0.03964    0.05408    0.31250
 45 Cu   -0.01764   -0.01045    0.05970
 46 Cu    0.00511    0.01329    0.09414
 47 Cu   -0.01615   -0.00494   -0.06135
 48 Cu    0.03797    0.01246   -0.39920
 49 Cu   -0.07869   -0.07765   -0.43910
 50 Cu   -0.09646    0.00003   -0.10637
 51 Cu   -0.03419   -0.14468    0.07827
 52 Cu   -0.01122   -0.00340    0.06192
 53 Cu    0.01044    0.02073   -0.39625
 54 Cl    0.19385   -0.33419    0.49533
 55 Cl   -0.36433    0.22124   -0.41919
 56 Cl    0.09048   -0.01480   -0.51629
 57 Cl    0.12232    0.16537    0.47062
 58 Cl   -0.10538   -0.40661    0.54066
 59 Cl   -0.24817    0.08383   -0.47348
 60 Cl   -0.04522   -0.02470   -0.44578
 61 Cl   -0.07239   -0.33477    0.71409
 62 Cl    0.16152    0.19028    0.48055
 63 Cl    0.17055    0.45174   -0.49354
 64 Cl    0.05695   -0.35096   -0.46836
 65 Cl   -0.04608    0.18552    0.40931
 66 Cl   -0.15373    0.27577    0.63283
 67 Cl    0.39439   -0.12995   -0.47846
 68 Cl    0.00281    0.09774   -0.45943
 69 Cl   -0.02981    0.08889    0.45490
 70 Cl   -0.05599    0.01937    0.47083
 71 Cl    0.03225   -0.01506   -0.46057

System changes: positions 

Initializing position-dependent things.

Density initialized from wave functions
                                     
                                     
                                     
                                     
            Cl    Cl    Cl           
                                     
          Cl    Cl     Cl            
        Cl Cu  ClCu  Cl Cu           
                                     
         Cu    Cu    CCu    Cu       
             Cu    Cu     Cu         
       Cu     Cu    Cu               
           Cu    CCu    Cu           
         Cu    Cu    CCu    Cu       
                                     
       Cu    CCu    Cu    Cu         
           Cu    CCu    Cu           
               Cu    Cu     Cu       
         Cu    Cu     Cu             
       Cu    CCu   CCu    Cu         
                                     
           Cu Cl  CuCl  Cu Cl        
            Cl           Cl          
                   Cl                
          Cl     Cl    Cl            
                                     
                                     
                                     
                                     

Positions:
   0 Cu     1.874999    1.828943   10.096741    ( 0.0000,  0.0000,  0.0000)
   1 Cu     0.573405    0.527684   11.894745    ( 0.0000,  0.0000,  0.0000)
   2 Cu     3.203456    0.546081   11.874338    ( 0.0000,  0.0000,  0.0000)
   3 Cu     1.886831    1.836065   13.707887    ( 0.0000,  0.0000,  0.0000)
   4 Cu     0.577977    0.525212   15.545360    ( 0.0000,  0.0000,  0.0000)
   5 Cu     3.187412    0.524703   15.546404    ( 0.0000,  0.0000,  0.0000)
   6 Cu     1.897279    1.851019   17.358538    ( 0.0000,  0.0000,  0.0000)
   7 Cu     0.575339    0.553652   19.123761    ( 0.0000,  0.0000,  0.0000)
   8 Cu     3.190274    0.512517   19.128021    ( 0.0000,  0.0000,  0.0000)
   9 Cu     0.573854    3.139740   11.895366    ( 0.0000,  0.0000,  0.0000)
  10 Cu     0.579103    3.145959   15.542181    ( 0.0000,  0.0000,  0.0000)
  11 Cu     0.571638    3.170687   19.128619    ( 0.0000,  0.0000,  0.0000)
  12 Cu     7.119901    1.808228   10.095896    ( 0.0000,  0.0000,  0.0000)
  13 Cu     5.797446    0.542311   11.871892    ( 0.0000,  0.0000,  0.0000)
  14 Cu     7.113038    1.834505   13.710296    ( 0.0000,  0.0000,  0.0000)
  15 Cu     5.808261    0.524062   15.542437    ( 0.0000,  0.0000,  0.0000)
  16 Cu     7.126670    1.848932   17.321935    ( 0.0000,  0.0000,  0.0000)
  17 Cu     5.808180    0.536657   19.093767    ( 0.0000,  0.0000,  0.0000)
  18 Cu     4.492723    1.802225   10.012618    ( 0.0000,  0.0000,  0.0000)
  19 Cu     4.497704    4.432102   10.063145    ( 0.0000,  0.0000,  0.0000)
  20 Cu     3.209573    3.137049   11.857332    ( 0.0000,  0.0000,  0.0000)
  21 Cu     5.787484    3.129713   11.856399    ( 0.0000,  0.0000,  0.0000)
  22 Cu     4.500026    1.833586   13.714443    ( 0.0000,  0.0000,  0.0000)
  23 Cu     4.499743    4.449520   13.710089    ( 0.0000,  0.0000,  0.0000)
  24 Cu     3.191129    3.144977   15.538618    ( 0.0000,  0.0000,  0.0000)
  25 Cu     5.803847    3.144131   15.543086    ( 0.0000,  0.0000,  0.0000)
  26 Cu     4.474807    1.855074   17.348729    ( 0.0000,  0.0000,  0.0000)
  27 Cu     4.476905    4.453730   17.379663    ( 0.0000,  0.0000,  0.0000)
  28 Cu     3.191587    3.157094   19.198884    ( 0.0000,  0.0000,  0.0000)
  29 Cu     5.815716    3.144296   19.097081    ( 0.0000,  0.0000,  0.0000)
  30 Cu     1.876548    4.437035   10.122024    ( 0.0000,  0.0000,  0.0000)
  31 Cu     1.881111    7.085289   10.108742    ( 0.0000,  0.0000,  0.0000)
  32 Cu     0.576234    5.762299   11.897806    ( 0.0000,  0.0000,  0.0000)
  33 Cu     3.198988    5.753085   11.876132    ( 0.0000,  0.0000,  0.0000)
  34 Cu     1.886910    4.450771   13.705272    ( 0.0000,  0.0000,  0.0000)
  35 Cu     1.883302    7.071005   13.706923    ( 0.0000,  0.0000,  0.0000)
  36 Cu     0.578848    5.759124   15.540860    ( 0.0000,  0.0000,  0.0000)
  37 Cu     3.191440    5.760063   15.534836    ( 0.0000,  0.0000,  0.0000)
  38 Cu     1.903821    4.459575   17.384445    ( 0.0000,  0.0000,  0.0000)
  39 Cu     1.902553    7.047345   17.356372    ( 0.0000,  0.0000,  0.0000)
  40 Cu     0.569250    5.798049   19.117736    ( 0.0000,  0.0000,  0.0000)
  41 Cu     3.193230    5.759174   19.204267    ( 0.0000,  0.0000,  0.0000)
  42 Cu     7.121676    4.420257   10.124980    ( 0.0000,  0.0000,  0.0000)
  43 Cu     7.113993    7.061084   10.107114    ( 0.0000,  0.0000,  0.0000)
  44 Cu     5.797708    5.750470   11.879432    ( 0.0000,  0.0000,  0.0000)
  45 Cu     7.112630    4.449244   13.707546    ( 0.0000,  0.0000,  0.0000)
  46 Cu     7.113087    7.069837   13.705277    ( 0.0000,  0.0000,  0.0000)
  47 Cu     5.803731    5.757467   15.542295    ( 0.0000,  0.0000,  0.0000)
  48 Cu     7.121073    4.451433   17.340590    ( 0.0000,  0.0000,  0.0000)
  49 Cu     7.109694    7.065301   17.331669    ( 0.0000,  0.0000,  0.0000)
  50 Cu     5.815838    5.749468   19.115046    ( 0.0000,  0.0000,  0.0000)
  51 Cu     4.501292    7.103180   10.108522    ( 0.0000,  0.0000,  0.0000)
  52 Cu     4.503663    7.071047   13.704008    ( 0.0000,  0.0000,  0.0000)
  53 Cu     4.487268    7.051729   17.361510    ( 0.0000,  0.0000,  0.0000)
  54 Cl     3.171080    4.444650   21.321529    ( 0.0000,  0.0000,  0.0000)
  55 Cl     4.483576    3.137999    7.953595    ( 0.0000,  0.0000,  0.0000)
  56 Cl     1.891375    5.707498    8.096116    ( 0.0000,  0.0000,  0.0000)
  57 Cl     0.586988    1.941727   21.157734    ( 0.0000,  0.0000,  0.0000)
  58 Cl     5.813208    6.977645   21.167037    ( 0.0000,  0.0000,  0.0000)
  59 Cl     6.998854    0.447294    7.940631    ( 0.0000,  0.0000,  0.0000)
  60 Cl     7.115656    5.684409    8.114258    ( 0.0000,  0.0000,  0.0000)
  61 Cl     5.806124    1.870367   21.212103    ( 0.0000,  0.0000,  0.0000)
  62 Cl     0.593877    7.246395   21.214171    ( 0.0000,  0.0000,  0.0000)
  63 Cl     1.781392    0.509339    7.956560    ( 0.0000,  0.0000,  0.0000)
  64 Cl     4.507232    5.728318    8.064812    ( 0.0000,  0.0000,  0.0000)
  65 Cl     3.188251    1.813924   21.186246    ( 0.0000,  0.0000,  0.0000)
  66 Cl     5.771253    4.433540   21.176560    ( 0.0000,  0.0000,  0.0000)
  67 Cl     1.895106    3.076285    8.046700    ( 0.0000,  0.0000,  0.0000)
  68 Cl     4.392825    0.469729    7.955461    ( 0.0000,  0.0000,  0.0000)
  69 Cl     3.197960    7.138174   21.176248    ( 0.0000,  0.0000,  0.0000)
  70 Cl     0.558094    4.609786   21.149873    ( 0.0000,  0.0000,  0.0000)
  71 Cl     7.107526    3.047713    8.042462    ( 0.0000,  0.0000,  0.0000)

Unit cell:
           periodic     x           y           z      points  spacing
  1. axis:    yes    7.851007    0.000000    0.000000    45     0.1655
  2. axis:    yes    2.617002    7.851007    0.000000    48     0.1636
  3. axis:    yes    0.000000    0.000000   30.683867   175     0.1753

  Lengths:   7.851007   8.275688  30.683867
  Angles:   90.000000  90.000000  71.565053

Effective grid spacing dv^(1/3) = 0.1710

     iter     time        total  log10-change:
                         energy  eigst   dens
iter:   1 15:56:49 -4785.893375  -0.86
iter:   2 15:57:46 -4752.890560  -0.61  -1.35
iter:   3 15:58:42 -4731.675844  -1.91  -1.48
iter:   4 15:59:39 -4725.616676  -2.73  -1.74
iter:   5 16:00:31 -4724.817673  -2.90  -2.24
iter:   6 16:01:28 -4724.135955  -2.87  -2.16
iter:   7 16:02:25 -4724.306082  -2.77  -2.42
iter:   8 16:03:29 -4724.044838c -4.25  -2.25
iter:   9 16:04:27 -4723.958050c -3.42  -2.45
iter:  10 16:05:24 -4723.943559c -4.33  -2.70
iter:  11 16:06:21 -4723.895200c -4.37  -2.69
iter:  12 16:07:19 -4723.891946c -4.60  -3.01
iter:  13 16:08:16 -4723.892329c -4.54  -3.14
iter:  14 16:09:13 -4723.890052c -5.19  -3.12
iter:  15 16:10:10 -4723.889216c -5.88  -3.22
iter:  16 16:11:07 -4723.888379c -4.76  -3.32
iter:  17 16:12:05 -4723.887748c -5.71  -3.47
iter:  18 16:13:02 -4723.887283c -6.28  -3.76
iter:  19 16:14:00 -4723.887218c -6.64  -3.90
iter:  20 16:14:57 -4723.887122c -6.89  -3.96
iter:  21 16:15:55 -4723.887275c -6.47  -4.05c
iter:  22 16:16:53 -4723.887054c -6.70  -4.20c
iter:  23 16:17:50 -4723.887090c -7.63c -4.20c

Converged after 23 iterations.

Dipole moment: (-15.204031, -43.452789, 0.011186) |e|*Ang

Energy contributions relative to reference atoms: (reference = -2657147.488543)

Kinetic:       +689.209191
Potential:     -672.946872
External:        +0.000000
XC:            -4739.019181
Entropy (-ST):   -0.999363
Local:           -0.630547
--------------------------
Free energy:   -4724.386772
Extrapolated:  -4723.887090

Showing only first 2 kpts
 Kpt  Band  Eigenvalues  Occupancy
  0   358      0.86423    0.75736
  0   359      0.87280    0.71749
  0   360      0.94313    0.43370
  0   361      0.98542    0.30710

  1   358      0.78403    1.15226
  1   359      0.80677    1.03970
  1   360      0.85766    0.78851
  1   361      0.87683    0.69907


Fermi level: 0.81472

No gap

Forces in eV/Ang:
  0 Cu   -0.01856   -0.02315    0.02138
  1 Cu   -0.00152   -0.00054    0.05180
  2 Cu   -0.01877   -0.07256    0.09752
  3 Cu    0.00617    0.00164    0.09837
  4 Cu    0.01024   -0.00585   -0.15964
  5 Cu   -0.01357   -0.00027   -0.15617
  6 Cu   -0.05421   -0.03532   -0.05907
  7 Cu   -0.02377   -0.03410    0.02930
  8 Cu    0.03060    0.05291    0.04974
  9 Cu   -0.00846   -0.02854    0.09614
 10 Cu    0.04211    0.03688   -0.16695
 11 Cu   -0.00604   -0.03265    0.00800
 12 Cu   -0.02738    0.03285   -0.04134
 13 Cu    0.01155   -0.06707    0.11411
 14 Cu   -0.00461    0.01469    0.11510
 15 Cu    0.00269   -0.00018   -0.11568
 16 Cu   -0.02482   -0.08644    0.05290
 17 Cu    0.00093    0.02590   -0.09697
 18 Cu    0.00895    0.05256    0.06765
 19 Cu    0.01748    0.00554    0.08371
 20 Cu   -0.01932   -0.01353    0.16647
 21 Cu    0.01654   -0.00126    0.16893
 22 Cu   -0.00418    0.01167    0.09874
 23 Cu    0.00003   -0.01614    0.05944
 24 Cu   -0.02019    0.04160   -0.15509
 25 Cu   -0.01937    0.03221   -0.14497
 26 Cu    0.08135   -0.07801   -0.03606
 27 Cu    0.01130    0.02233   -0.16167
 28 Cu    0.00893    0.00054   -0.04931
 29 Cu   -0.02172   -0.03887    0.04318
 30 Cu    0.01085    0.02623   -0.02961
 31 Cu   -0.00350   -0.03143   -0.04170
 32 Cu   -0.01705    0.00881    0.06485
 33 Cu   -0.00482    0.02037    0.11318
 34 Cu    0.01021   -0.01252    0.06721
 35 Cu   -0.00275    0.00343    0.08909
 36 Cu    0.01127   -0.01744   -0.15943
 37 Cu    0.01045   -0.02225   -0.15335
 38 Cu   -0.02261   -0.02544   -0.16147
 39 Cu   -0.04279    0.11670   -0.08811
 40 Cu    0.01050   -0.05442    0.01161
 41 Cu   -0.01796    0.00358    0.01731
 42 Cu   -0.01118    0.02069   -0.03675
 43 Cu   -0.00535    0.01941   -0.05035
 44 Cu    0.01135    0.02281    0.10115
 45 Cu   -0.01546   -0.01167    0.07631
 46 Cu    0.00491    0.00142    0.10894
 47 Cu   -0.01938   -0.01461   -0.14838
 48 Cu    0.01197    0.04706   -0.08444
 49 Cu    0.02702    0.04157   -0.01761
 50 Cu   -0.00704    0.04392   -0.04274
 51 Cu   -0.03446   -0.08958   -0.09229
 52 Cu   -0.00273   -0.00217    0.09117
 53 Cu    0.01829    0.08122   -0.08209
 54 Cl   -0.12596    0.22608    0.28335
 55 Cl    0.19495   -0.23459   -0.25872
 56 Cl   -0.02203   -0.10037   -0.18141
 57 Cl   -0.08248    0.16009    0.15980
 58 Cl    0.06901    0.28555    0.21961
 59 Cl    0.08469   -0.03197   -0.26222
 60 Cl    0.09267   -0.02394   -0.11553
 61 Cl    0.08045    0.43838    0.39056
 62 Cl   -0.11813   -0.24645    0.37149
 63 Cl   -0.09955   -0.29262   -0.21914
 64 Cl   -0.00086    0.36939   -0.18589
 65 Cl    0.00550   -0.43982    0.11110
 66 Cl    0.06706   -0.56072    0.32353
 67 Cl   -0.15063    0.26764   -0.20641
 68 Cl   -0.01299    0.17427   -0.18157
 69 Cl    0.06519   -0.23796    0.08288
 70 Cl    0.05629    0.28179    0.17088
 71 Cl    0.01409   -0.01308   -0.16180

System changes: positions 

Initializing position-dependent things.

Density initialized from wave functions
                                     
                                     
                                     
                                     
            Cl    Cl    Cl           
                                     
          Cl    Cl     Cl            
        Cl Cu  ClCu  Cl Cu           
                                     
         Cu    Cu    CCu    Cu       
             Cu    Cu     Cu         
       Cu     Cu    Cu               
           Cu    CCu    Cu           
         Cu    Cu    CCu    Cu       
                                     
       Cu    CCu    Cu    Cu         
           Cu    CCu    Cu           
               Cu    Cu     Cu       
         Cu    Cu     Cu             
       Cu    CCu   CCu    Cu         
                                     
           Cu Cl  CuCl  Cu Cl        
            Cl           Cl          
                   Cl                
          Cl     Cl    Cl            
                                     
                                     
                                     
                                     

Positions:
   0 Cu     1.875720    1.825667   10.104626    ( 0.0000,  0.0000,  0.0000)
   1 Cu     0.573826    0.531109   11.914085    ( 0.0000,  0.0000,  0.0000)
   2 Cu     3.200706    0.538067   11.900862    ( 0.0000,  0.0000,  0.0000)
   3 Cu     1.888108    1.836164   13.721728    ( 0.0000,  0.0000,  0.0000)
   4 Cu     0.578897    0.524118   15.522126    ( 0.0000,  0.0000,  0.0000)
   5 Cu     3.186221    0.525160   15.524893    ( 0.0000,  0.0000,  0.0000)
   6 Cu     1.890949    1.847345   17.331947    ( 0.0000,  0.0000,  0.0000)
   7 Cu     0.571315    0.543061   19.141564    ( 0.0000,  0.0000,  0.0000)
   8 Cu     3.195436    0.525656   19.135258    ( 0.0000,  0.0000,  0.0000)
   9 Cu     0.572819    3.133892   11.920047    ( 0.0000,  0.0000,  0.0000)
  10 Cu     0.585032    3.150962   15.519592    ( 0.0000,  0.0000,  0.0000)
  11 Cu     0.575985    3.170463   19.126668    ( 0.0000,  0.0000,  0.0000)
  12 Cu     7.111787    1.812152   10.095363    ( 0.0000,  0.0000,  0.0000)
  13 Cu     5.798712    0.536302   11.901485    ( 0.0000,  0.0000,  0.0000)
  14 Cu     7.112145    1.836910   13.727655    ( 0.0000,  0.0000,  0.0000)
  15 Cu     5.808432    0.524017   15.524636    ( 0.0000,  0.0000,  0.0000)
  16 Cu     7.129409    1.847632   17.303190    ( 0.0000,  0.0000,  0.0000)
  17 Cu     5.808394    0.528696   19.113323    ( 0.0000,  0.0000,  0.0000)
  18 Cu     4.494078    1.816778   10.036103    ( 0.0000,  0.0000,  0.0000)
  19 Cu     4.500899    4.429869   10.072373    ( 0.0000,  0.0000,  0.0000)
  20 Cu     3.206450    3.130744   11.888197    ( 0.0000,  0.0000,  0.0000)
  21 Cu     5.789620    3.125183   11.886988    ( 0.0000,  0.0000,  0.0000)
  22 Cu     4.499238    1.835187   13.728314    ( 0.0000,  0.0000,  0.0000)
  23 Cu     4.499644    4.446951   13.719818    ( 0.0000,  0.0000,  0.0000)
  24 Cu     3.188714    3.150548   15.517140    ( 0.0000,  0.0000,  0.0000)
  25 Cu     5.800737    3.148444   15.523325    ( 0.0000,  0.0000,  0.0000)
  26 Cu     4.478842    1.849934   17.318602    ( 0.0000,  0.0000,  0.0000)
  27 Cu     4.477547    4.458975   17.344040    ( 0.0000,  0.0000,  0.0000)
  28 Cu     3.191199    3.157821   19.199524    ( 0.0000,  0.0000,  0.0000)
  29 Cu     5.808488    3.142398   19.094104    ( 0.0000,  0.0000,  0.0000)
  30 Cu     1.882626    4.438062   10.127579    ( 0.0000,  0.0000,  0.0000)
  31 Cu     1.880770    7.079576   10.100870    ( 0.0000,  0.0000,  0.0000)
  32 Cu     0.573553    5.761329   11.917371    ( 0.0000,  0.0000,  0.0000)
  33 Cu     3.196662    5.757339   11.904305    ( 0.0000,  0.0000,  0.0000)
  34 Cu     1.888811    4.448873   13.715280    ( 0.0000,  0.0000,  0.0000)
  35 Cu     1.883272    7.071676   13.720990    ( 0.0000,  0.0000,  0.0000)
  36 Cu     0.580722    5.756088   15.517943    ( 0.0000,  0.0000,  0.0000)
  37 Cu     3.192984    5.756895   15.513882    ( 0.0000,  0.0000,  0.0000)
  38 Cu     1.900466    4.458624   17.351179    ( 0.0000,  0.0000,  0.0000)
  39 Cu     1.901145    7.057563   17.323358    ( 0.0000,  0.0000,  0.0000)
  40 Cu     0.574952    5.791275   19.118104    ( 0.0000,  0.0000,  0.0000)
  41 Cu     3.189729    5.753281   19.194429    ( 0.0000,  0.0000,  0.0000)
  42 Cu     7.115471    4.420860   10.127813    ( 0.0000,  0.0000,  0.0000)
  43 Cu     7.113044    7.063359   10.097931    ( 0.0000,  0.0000,  0.0000)
  44 Cu     5.800800    5.755548   11.905559    ( 0.0000,  0.0000,  0.0000)
  45 Cu     7.110002    4.447377   13.719256    ( 0.0000,  0.0000,  0.0000)
  46 Cu     7.113880    7.070622   13.722350    ( 0.0000,  0.0000,  0.0000)
  47 Cu     5.800709    5.755503   15.522037    ( 0.0000,  0.0000,  0.0000)
  48 Cu     7.124345    4.457534   17.312192    ( 0.0000,  0.0000,  0.0000)
  49 Cu     7.108992    7.066451   17.308849    ( 0.0000,  0.0000,  0.0000)
  50 Cu     5.811095    5.754810   19.110026    ( 0.0000,  0.0000,  0.0000)
  51 Cu     4.495418    7.084662   10.097705    ( 0.0000,  0.0000,  0.0000)
  52 Cu     4.502850    7.070677   13.717589    ( 0.0000,  0.0000,  0.0000)
  53 Cu     4.489717    7.061980   17.333470    ( 0.0000,  0.0000,  0.0000)
  54 Cl     3.163434    4.452625   21.375014    ( 0.0000,  0.0000,  0.0000)
  55 Cl     4.492008    3.123565    7.905734    ( 0.0000,  0.0000,  0.0000)
  56 Cl     1.892345    5.698893    8.054827    ( 0.0000,  0.0000,  0.0000)
  57 Cl     0.582605    1.964044   21.193207    ( 0.0000,  0.0000,  0.0000)
  58 Cl     5.817059    6.991969   21.212981    ( 0.0000,  0.0000,  0.0000)
  59 Cl     7.000866    0.443080    7.890719    ( 0.0000,  0.0000,  0.0000)
  60 Cl     7.124869    5.683947    8.083985    ( 0.0000,  0.0000,  0.0000)
  61 Cl     5.812609    1.899652   21.285310    ( 0.0000,  0.0000,  0.0000)
  62 Cl     0.587104    7.235550   21.271215    ( 0.0000,  0.0000,  0.0000)
  63 Cl     1.774079    0.494017    7.910339    ( 0.0000,  0.0000,  0.0000)
  64 Cl     4.509804    5.753209    8.028054    ( 0.0000,  0.0000,  0.0000)
  65 Cl     3.186565    1.774841   21.210892    ( 0.0000,  0.0000,  0.0000)
  66 Cl     5.774374    4.383705   21.239464    ( 0.0000,  0.0000,  0.0000)
  67 Cl     1.892581    3.100845    8.002388    ( 0.0000,  0.0000,  0.0000)
  68 Cl     4.391717    0.490178    7.915220    ( 0.0000,  0.0000,  0.0000)
  69 Cl     3.204061    7.119312   21.200663    ( 0.0000,  0.0000,  0.0000)
  70 Cl     0.561684    4.643435   21.187175    ( 0.0000,  0.0000,  0.0000)
  71 Cl     7.111287    3.045771    8.004486    ( 0.0000,  0.0000,  0.0000)

Unit cell:
           periodic     x           y           z      points  spacing
  1. axis:    yes    7.851007    0.000000    0.000000    45     0.1655
  2. axis:    yes    2.617002    7.851007    0.000000    48     0.1636
  3. axis:    yes    0.000000    0.000000   30.683867   175     0.1753

  Lengths:   7.851007   8.275688  30.683867
  Angles:   90.000000  90.000000  71.565053

Effective grid spacing dv^(1/3) = 0.1710

     iter     time        total  log10-change:
                         energy  eigst   dens
iter:   1 16:19:22 -4756.414002  -1.26
iter:   2 16:20:18 -4745.852499  -0.95  -1.47
iter:   3 16:21:10 -4726.622151  -2.15  -1.50
iter:   4 16:22:06 -4725.142513  -2.99  -2.03
iter:   5 16:23:02 -4724.394454  -3.04  -2.26
iter:   6 16:23:56 -4724.236945  -3.33  -2.41
iter:   7 16:24:50 -4724.249619c -3.28  -2.60
iter:   8 16:25:46 -4724.145762c -4.42  -2.54
iter:   9 16:26:42 -4724.147470c -4.56  -2.96
iter:  10 16:27:40 -4724.135857c -5.29  -2.94
iter:  11 16:28:37 -4724.136671c -4.84  -3.12
iter:  12 16:29:34 -4724.134166c -5.55  -3.12
iter:  13 16:30:29 -4724.133747c -4.80  -3.23
iter:  14 16:31:23 -4724.133028c -5.92  -3.61
iter:  15 16:32:15 -4724.131950c -5.23  -3.67
iter:  16 16:33:09 -4724.131927c -6.21  -3.87
iter:  17 16:34:04 -4724.131865c -7.25  -4.06c
iter:  18 16:34:59 -4724.131933c -6.26  -4.11c
iter:  19 16:35:56 -4724.131781c -7.09  -4.17c
iter:  20 16:36:54 -4724.131792c -7.31  -4.33c
iter:  21 16:37:46 -4724.131805c -8.02c -4.44c

Converged after 21 iterations.

Dipole moment: (-14.726091, -43.989140, 0.007702) |e|*Ang

Energy contributions relative to reference atoms: (reference = -2657147.488543)

Kinetic:       +674.705784
Potential:     -661.702909
External:        +0.000000
XC:            -4735.979791
Entropy (-ST):   -1.002227
Local:           -0.653775
--------------------------
Free energy:   -4724.632919
Extrapolated:  -4724.131805

Showing only first 2 kpts
 Kpt  Band  Eigenvalues  Occupancy
  0   358      0.82399    0.82305
  0   359      0.86386    0.63888
  0   360      0.92509    0.40568
  0   361      0.97512    0.26735

  1   358      0.75019    1.18793
  1   359      0.76632    1.10909
  1   360      0.81176    0.88289
  1   361      0.81508    0.86656


Fermi level: 0.78823

No gap

Forces in eV/Ang:
  0 Cu   -0.01944   -0.01094   -0.06189
  1 Cu   -0.01475   -0.04367   -0.08810
  2 Cu   -0.01815   -0.07277   -0.07032
  3 Cu   -0.00722   -0.01334    0.02544
  4 Cu   -0.00119    0.01435   -0.06722
  5 Cu   -0.00103    0.00682   -0.06071
  6 Cu   -0.02697   -0.02934    0.08445
  7 Cu   -0.00779    0.00356   -0.00471
  8 Cu    0.01235    0.00940   -0.03444
  9 Cu   -0.01236    0.01481   -0.05528
 10 Cu   -0.00946   -0.00240   -0.06140
 11 Cu   -0.03366   -0.05387    0.02601
 12 Cu    0.00003    0.01751   -0.03636
 13 Cu    0.01918   -0.06259   -0.06282
 14 Cu    0.00517   -0.00601    0.03915
 15 Cu    0.00216    0.00938   -0.04996
 16 Cu   -0.04218   -0.07808    0.16808
 17 Cu    0.00334    0.04314   -0.12755
 18 Cu   -0.01249   -0.01201    0.00590
 19 Cu    0.00006    0.02359    0.01953
 20 Cu   -0.02348    0.02911    0.01352
 21 Cu    0.02943    0.03671    0.02732
 22 Cu   -0.00168   -0.01150    0.03384
 23 Cu    0.00033    0.00417   -0.01002
 24 Cu   -0.00297   -0.00501   -0.04906
 25 Cu    0.01347    0.00239   -0.04210
 26 Cu    0.07061   -0.05346    0.12997
 27 Cu    0.01728   -0.00808    0.04068
 28 Cu    0.01575    0.01039   -0.02643
 29 Cu    0.00275   -0.00689   -0.01086
 30 Cu   -0.00404    0.01016   -0.02314
 31 Cu   -0.01480    0.00427   -0.00834
 32 Cu   -0.00952    0.01270   -0.05110
 33 Cu    0.00025    0.00588   -0.03957
 34 Cu   -0.00946    0.00672   -0.01131
 35 Cu   -0.00254    0.00074    0.01560
 36 Cu   -0.00306    0.01319   -0.06576
 37 Cu   -0.00082    0.01251   -0.06261
 38 Cu   -0.00672   -0.01972    0.00724
 39 Cu   -0.05188    0.06291    0.09874
 40 Cu   -0.02074   -0.04953   -0.04788
 41 Cu    0.00603    0.01267    0.00558
 42 Cu    0.01749    0.02812   -0.03802
 43 Cu   -0.00805    0.03817   -0.03287
 44 Cu    0.00230    0.00416   -0.04293
 45 Cu    0.00407    0.00446    0.00690
 46 Cu    0.00395   -0.00972    0.03450
 47 Cu    0.00465    0.01291   -0.06660
 48 Cu   -0.01467    0.00206    0.07817
 49 Cu    0.04225    0.04428    0.11969
 50 Cu    0.00708    0.03195    0.05220
 51 Cu   -0.01200   -0.01338   -0.00798
 52 Cu   -0.00426   -0.00219    0.02031
 53 Cu    0.00850    0.05832    0.07322
 54 Cl   -0.05146   -0.14120    0.18475
 55 Cl    0.13637    0.09907   -0.13836
 56 Cl    0.01051    0.06240   -0.10137
 57 Cl    0.00007    0.09915    0.00433
 58 Cl   -0.00424   -0.37903    0.09018
 59 Cl    0.02997   -0.08889   -0.17714
 60 Cl    0.01716    0.07669    0.01149
 61 Cl   -0.01093   -0.12214    0.34785
 62 Cl    0.01564    0.28608    0.27624
 63 Cl   -0.02601    0.11090   -0.13278
 64 Cl    0.03133   -0.04955   -0.06712
 65 Cl    0.01560    0.04712   -0.01700
 66 Cl    0.03636    0.01891    0.20733
 67 Cl   -0.08871   -0.08453   -0.09489
 68 Cl   -0.01952   -0.03828   -0.07383
 69 Cl    0.00164    0.02983   -0.06504
 70 Cl    0.01194    0.11001    0.06401
 71 Cl    0.00043   -0.05797   -0.06859

System changes: positions 

Initializing position-dependent things.

Density initialized from wave functions
                                     
                                     
                                     
                                     
            Cl    Cl    Cl           
                                     
          Cl    Cl     Cl            
        Cl           Cl              
           Cu  ClCu     Cu           
         Cu    Cu    CCu    Cu       
                                     
       Cu    CCu   CCu    Cu         
           Cu    CCu    Cu           
                                     
         Cu    Cu    CCu    Cu       
             Cu    Cu     Cu         
       Cu     Cu    Cu               
           Cu    CCu    Cu           
         Cu    Cu    CCu    Cu       
                                     
       Cu    CCu   CCu    Cu         
           Cu           Cu           
              Cl  CuCl     Cl        
            Cl     Cl    Cl          
                                     
          Cl     Cl    Cl            
                                     
                                     
                                     
                                     

Positions:
   0 Cu     1.874067    1.822758   10.101377    ( 0.0000,  0.0000,  0.0000)
   1 Cu     0.572286    0.527722   11.913546    ( 0.0000,  0.0000,  0.0000)
   2 Cu     3.197188    0.525652   11.905925    ( 0.0000,  0.0000,  0.0000)
   3 Cu     1.887866    1.834571   13.731295    ( 0.0000,  0.0000,  0.0000)
   4 Cu     0.579129    0.525329   15.503005    ( 0.0000,  0.0000,  0.0000)
   5 Cu     3.185612    0.526255   15.507498    ( 0.0000,  0.0000,  0.0000)
   6 Cu     1.884818    1.842161   17.328025    ( 0.0000,  0.0000,  0.0000)
   7 Cu     0.568435    0.538034   19.150137    ( 0.0000,  0.0000,  0.0000)
   8 Cu     3.199423    0.533498   19.134126    ( 0.0000,  0.0000,  0.0000)
   9 Cu     0.570841    3.132799   11.925948    ( 0.0000,  0.0000,  0.0000)
  10 Cu     0.586649    3.152988   15.501648    ( 0.0000,  0.0000,  0.0000)
  11 Cu     0.574456    3.164271   19.128361    ( 0.0000,  0.0000,  0.0000)
  12 Cu     7.107541    1.815996   10.091348    ( 0.0000,  0.0000,  0.0000)
  13 Cu     5.801619    0.526185   11.908967    ( 0.0000,  0.0000,  0.0000)
  14 Cu     7.112334    1.837336   13.740657    ( 0.0000,  0.0000,  0.0000)
  15 Cu     5.808753    0.525138   15.510084    ( 0.0000,  0.0000,  0.0000)
  16 Cu     7.126139    1.838545   17.312382    ( 0.0000,  0.0000,  0.0000)
  17 Cu     5.808910    0.529278   19.109285    ( 0.0000,  0.0000,  0.0000)
  18 Cu     4.493189    1.822855   10.049271    ( 0.0000,  0.0000,  0.0000)
  19 Cu     4.502463    4.431081   10.079333    ( 0.0000,  0.0000,  0.0000)
  20 Cu     3.202109    3.130935   11.904945    ( 0.0000,  0.0000,  0.0000)
  21 Cu     5.794167    3.127134   11.905231    ( 0.0000,  0.0000,  0.0000)
  22 Cu     4.498645    1.834529   13.738920    ( 0.0000,  0.0000,  0.0000)
  23 Cu     4.499628    4.446232   13.723276    ( 0.0000,  0.0000,  0.0000)
  24 Cu     3.187267    3.152510   15.501163    ( 0.0000,  0.0000,  0.0000)
  25 Cu     5.800888    3.150727   15.509028    ( 0.0000,  0.0000,  0.0000)
  26 Cu     4.488640    1.841564   17.317930    ( 0.0000,  0.0000,  0.0000)
  27 Cu     4.479843    4.460638   17.331156    ( 0.0000,  0.0000,  0.0000)
  28 Cu     3.192781    3.159820   19.196789    ( 0.0000,  0.0000,  0.0000)
  29 Cu     5.805003    3.141054   19.090169    ( 0.0000,  0.0000,  0.0000)
  30 Cu     1.885456    4.439428   10.128501    ( 0.0000,  0.0000,  0.0000)
  31 Cu     1.878812    7.077397   10.096316    ( 0.0000,  0.0000,  0.0000)
  32 Cu     0.571114    5.762212   11.921322    ( 0.0000,  0.0000,  0.0000)
  33 Cu     3.195435    5.760181   11.913863    ( 0.0000,  0.0000,  0.0000)
  34 Cu     1.888592    4.448794   13.718628    ( 0.0000,  0.0000,  0.0000)
  35 Cu     1.882984    7.072096   13.729614    ( 0.0000,  0.0000,  0.0000)
  36 Cu     0.581253    5.756220   15.499174    ( 0.0000,  0.0000,  0.0000)
  37 Cu     3.193613    5.756938   15.496525    ( 0.0000,  0.0000,  0.0000)
  38 Cu     1.898088    4.456024   17.335541    ( 0.0000,  0.0000,  0.0000)
  39 Cu     1.894590    7.069413   17.317957    ( 0.0000,  0.0000,  0.0000)
  40 Cu     0.575540    5.782264   19.111982    ( 0.0000,  0.0000,  0.0000)
  41 Cu     3.188736    5.751244   19.189024    ( 0.0000,  0.0000,  0.0000)
  42 Cu     7.114223    4.424254   10.125506    ( 0.0000,  0.0000,  0.0000)
  43 Cu     7.111600    7.069137   10.089718    ( 0.0000,  0.0000,  0.0000)
  44 Cu     5.802678    5.758618   11.913717    ( 0.0000,  0.0000,  0.0000)
  45 Cu     7.109225    4.447028   13.725660    ( 0.0000,  0.0000,  0.0000)
  46 Cu     7.114743    7.069862   13.734703    ( 0.0000,  0.0000,  0.0000)
  47 Cu     5.799835    5.756171   15.504524    ( 0.0000,  0.0000,  0.0000)
  48 Cu     7.124234    4.460582   17.306828    ( 0.0000,  0.0000,  0.0000)
  49 Cu     7.113384    7.071930   17.310802    ( 0.0000,  0.0000,  0.0000)
  50 Cu     5.809334    5.761102   19.113786    ( 0.0000,  0.0000,  0.0000)
  51 Cu     4.491130    7.073895   10.092156    ( 0.0000,  0.0000,  0.0000)
  52 Cu     4.501908    7.070228   13.726479    ( 0.0000,  0.0000,  0.0000)
  53 Cu     4.491898    7.073774   17.327677    ( 0.0000,  0.0000,  0.0000)
  54 Cl     3.154721    4.437011   21.424041    ( 0.0000,  0.0000,  0.0000)
  55 Cl     4.510513    3.130525    7.865258    ( 0.0000,  0.0000,  0.0000)
  56 Cl     1.894526    5.702745    8.021357    ( 0.0000,  0.0000,  0.0000)
  57 Cl     0.581306    1.986824   21.211946    ( 0.0000,  0.0000,  0.0000)
  58 Cl     5.817716    6.949942   21.247258    ( 0.0000,  0.0000,  0.0000)
  59 Cl     7.004223    0.430622    7.844342    ( 0.0000,  0.0000,  0.0000)
  60 Cl     7.130852    5.693112    8.069584    ( 0.0000,  0.0000,  0.0000)
  61 Cl     5.813799    1.895724   21.364094    ( 0.0000,  0.0000,  0.0000)
  62 Cl     0.586847    7.267032   21.332620    ( 0.0000,  0.0000,  0.0000)
  63 Cl     1.768409    0.503066    7.870888    ( 0.0000,  0.0000,  0.0000)
  64 Cl     4.515086    5.756278    8.001177    ( 0.0000,  0.0000,  0.0000)
  65 Cl     3.187450    1.764301   21.221748    ( 0.0000,  0.0000,  0.0000)
  66 Cl     5.779467    4.365377   21.296133    ( 0.0000,  0.0000,  0.0000)
  67 Cl     1.882658    3.100779    7.968477    ( 0.0000,  0.0000,  0.0000)
  68 Cl     4.388871    0.494987    7.885815    ( 0.0000,  0.0000,  0.0000)
  69 Cl     3.206818    7.115226   21.205855    ( 0.0000,  0.0000,  0.0000)
  70 Cl     0.564419    4.671983   21.214029    ( 0.0000,  0.0000,  0.0000)
  71 Cl     7.113227    3.037770    7.976725    ( 0.0000,  0.0000,  0.0000)

Unit cell:
           periodic     x           y           z      points  spacing
  1. axis:    yes    7.851007    0.000000    0.000000    45     0.1655
  2. axis:    yes    2.617002    7.851007    0.000000    48     0.1636
  3. axis:    yes    0.000000    0.000000   30.683867   175     0.1753

  Lengths:   7.851007   8.275688  30.683867
  Angles:   90.000000  90.000000  71.565053

Effective grid spacing dv^(1/3) = 0.1710

     iter     time        total  log10-change:
                         energy  eigst   dens
iter:   1 16:39:14 -4731.390365  -1.87
iter:   2 16:40:11 -4732.083105  -1.65  -1.73
iter:   3 16:41:08 -4725.780231  -2.54  -1.71
iter:   4 16:42:06 -4724.406156  -3.34  -2.05
iter:   5 16:43:04 -4724.296204  -3.93  -2.52
iter:   6 16:44:01 -4724.286803c -3.75  -2.70
iter:   7 16:44:58 -4724.258604c -4.08  -2.81
iter:   8 16:45:55 -4724.252699c -5.07  -3.04
iter:   9 16:46:52 -4724.258057c -4.77  -3.20
iter:  10 16:47:48 -4724.253481c -5.49  -3.12
iter:  11 16:48:45 -4724.254548c -5.01  -3.29
iter:  12 16:49:42 -4724.253357c -5.36  -3.20
iter:  13 16:50:40 -4724.251192c -5.86  -3.44
iter:  14 16:51:31 -4724.251025c -6.85  -3.84
iter:  15 16:52:27 -4724.250665c -6.43  -3.92
iter:  16 16:53:24 -4724.250741c -7.33  -4.18c
iter:  17 16:54:21 -4724.250726c -7.84c -4.38c

Converged after 17 iterations.

Dipole moment: (-14.226319, -43.738128, -0.006121) |e|*Ang

Energy contributions relative to reference atoms: (reference = -2657147.488543)

Kinetic:       +664.344009
Potential:     -653.660032
External:        +0.000000
XC:            -4733.777368
Entropy (-ST):   -1.001695
Local:           -0.656487
--------------------------
Free energy:   -4724.751573
Extrapolated:  -4724.250726

Showing only first 2 kpts
 Kpt  Band  Eigenvalues  Occupancy
  0   358      0.80446    0.78699
  0   359      0.85237    0.57326
  0   360      0.89622    0.41165
  0   361      0.95928    0.24246

  1   358      0.72992    1.15512
  1   359      0.73939    1.10859
  1   360      0.76649    0.97350
  1   361      0.77281    0.94196


Fermi level: 0.76119

No gap

Forces in eV/Ang:
  0 Cu   -0.00491   -0.00040   -0.06840
  1 Cu   -0.01256   -0.02118   -0.09311
  2 Cu   -0.01096   -0.01487   -0.09237
  3 Cu   -0.01497   -0.01834   -0.08813
  4 Cu   -0.01831    0.01515    0.07973
  5 Cu    0.01817    0.01026    0.08505
  6 Cu    0.00257    0.00333    0.05901
  7 Cu    0.00626    0.00992    0.04375
  8 Cu    0.00351   -0.00644    0.04924
  9 Cu   -0.00545    0.01108   -0.09107
 10 Cu   -0.04509   -0.02696    0.08771
 11 Cu   -0.03646   -0.04116    0.05099
 12 Cu    0.00026    0.01112   -0.03861
 13 Cu    0.00596   -0.00614   -0.09311
 14 Cu    0.00938   -0.01865   -0.07797
 15 Cu   -0.00020    0.01130    0.05126
 16 Cu   -0.00262   -0.00763    0.06514
 17 Cu   -0.00324    0.00192   -0.01019
 18 Cu   -0.01951   -0.01521   -0.04254
 19 Cu   -0.01089    0.00259   -0.01535
 20 Cu   -0.01542    0.00664   -0.07084
 21 Cu    0.01773    0.01715   -0.05551
 22 Cu    0.00092   -0.02597   -0.07735
 23 Cu   -0.00227    0.01691   -0.06407
 24 Cu    0.01871   -0.03714    0.08278
 25 Cu    0.02451   -0.02025    0.08083
 26 Cu    0.00051    0.01163    0.06629
 27 Cu    0.00815    0.00307    0.08766
 28 Cu    0.01581    0.02770    0.01150
 29 Cu    0.01071    0.03535    0.05254
 30 Cu   -0.00194   -0.00137   -0.05679
 31 Cu   -0.01193    0.01398   -0.02676
 32 Cu   -0.00507    0.00548   -0.07135
 33 Cu   -0.00296   -0.00341   -0.07855
 34 Cu   -0.01871    0.01663   -0.07661
 35 Cu    0.00156   -0.00105   -0.07360
 36 Cu   -0.01132    0.02219    0.07212
 37 Cu   -0.00899    0.03162    0.07368
 38 Cu    0.00754   -0.00916    0.05546
 39 Cu   -0.00382   -0.02432    0.07592
 40 Cu   -0.02067   -0.04500    0.01705
 41 Cu    0.00480    0.00316    0.03948
 42 Cu    0.02334    0.02467   -0.05178
 43 Cu   -0.00887    0.03519   -0.03679
 44 Cu    0.00312   -0.00608   -0.07495
 45 Cu    0.01700    0.01560   -0.06720
 46 Cu    0.00010   -0.00665   -0.06988
 47 Cu    0.01842    0.02468    0.06980
 48 Cu   -0.02260   -0.02085    0.07191
 49 Cu    0.00440   -0.00164    0.06260
 50 Cu    0.01152    0.01846    0.05878
 51 Cu   -0.00433    0.01351   -0.02702
 52 Cu   -0.00630   -0.00078   -0.07316
 53 Cu   -0.00282    0.00315    0.06401
 54 Cl    0.00974   -0.06566    0.12894
 55 Cl   -0.04109    0.06752   -0.04393
 56 Cl    0.03637   -0.04651   -0.04610
 57 Cl    0.01464    0.03230   -0.07551
 58 Cl    0.01831   -0.23736    0.00764
 59 Cl   -0.03392   -0.04597   -0.14323
 60 Cl    0.00042   -0.00914    0.08544
 61 Cl   -0.01952   -0.02428    0.32997
 62 Cl    0.01536    0.31626    0.21641
 63 Cl    0.02307    0.04923   -0.08240
 64 Cl    0.01461   -0.02482   -0.00465
 65 Cl    0.00741   -0.10364   -0.15321
 66 Cl   -0.03075   -0.21767    0.16627
 67 Cl    0.08277   -0.00867   -0.02826
 68 Cl    0.00431    0.05783   -0.00399
 69 Cl   -0.02137    0.03664   -0.18324
 70 Cl    0.02189    0.23885   -0.03265
 71 Cl   -0.00084   -0.05472   -0.01087

System changes: positions 

Initializing position-dependent things.

Density initialized from wave functions
                                     
                                     
                                     
                                     
            Cl    Cl    Cl           
                                     
          Cl    Cl    Cl             
                     Cl              
        Cl Cu Cl Cu     Cu           
         Cu    Cu    CCu    Cu       
                                     
       Cu    CCu   CCu    Cu         
           Cu    Cu    CCu           
                  Cu                 
         Cu    Cu    CCu    Cu       
             Cu    Cu     Cu         
       Cu     Cu    Cu               
           Cu    CCu    Cu           
         Cu    Cu    CCu    Cu       
                                     
       Cu    CCu   CCu    Cu         
           Cu     Cu    Cu Cl        
              Cl    Cl               
            Cl     Cl    Cl          
                                     
          Cl     Cl    Cl            
                                     
                                     
                                     
                                     

Positions:
   0 Cu     1.871514    1.818118   10.087647    ( 0.0000,  0.0000,  0.0000)
   1 Cu     0.568275    0.520887   11.902074    ( 0.0000,  0.0000,  0.0000)
   2 Cu     3.190082    0.505518   11.903581    ( 0.0000,  0.0000,  0.0000)
   3 Cu     1.885243    1.829331   13.731012    ( 0.0000,  0.0000,  0.0000)
   4 Cu     0.576340    0.529208   15.487325    ( 0.0000,  0.0000,  0.0000)
   5 Cu     3.187842    0.529598   15.495429    ( 0.0000,  0.0000,  0.0000)
   6 Cu     1.875943    1.835388   17.325529    ( 0.0000,  0.0000,  0.0000)
   7 Cu     0.564865    0.530473   19.173634    ( 0.0000,  0.0000,  0.0000)
   8 Cu     3.206467    0.545937   19.143649    ( 0.0000,  0.0000,  0.0000)
   9 Cu     0.567144    3.131675   11.924278    ( 0.0000,  0.0000,  0.0000)
  10 Cu     0.582201    3.152053   15.489069    ( 0.0000,  0.0000,  0.0000)
  11 Cu     0.567422    3.149353   19.138769    ( 0.0000,  0.0000,  0.0000)
  12 Cu     7.099843    1.823805   10.079539    ( 0.0000,  0.0000,  0.0000)
  13 Cu     5.806609    0.511055   11.910366    ( 0.0000,  0.0000,  0.0000)
  14 Cu     7.113995    1.835195   13.747484    ( 0.0000,  0.0000,  0.0000)
  15 Cu     5.809153    0.528537   15.496379    ( 0.0000,  0.0000,  0.0000)
  16 Cu     7.122651    1.825946   17.329141    ( 0.0000,  0.0000,  0.0000)
  17 Cu     5.809005    0.527873   19.108184    ( 0.0000,  0.0000,  0.0000)
  18 Cu     4.488968    1.832073   10.064984    ( 0.0000,  0.0000,  0.0000)
  19 Cu     4.503349    4.431912   10.088311    ( 0.0000,  0.0000,  0.0000)
  20 Cu     3.193112    3.130366   11.921825    ( 0.0000,  0.0000,  0.0000)
  21 Cu     5.803517    3.131158   11.926615    ( 0.0000,  0.0000,  0.0000)
  22 Cu     4.497853    1.829487   13.741868    ( 0.0000,  0.0000,  0.0000)
  23 Cu     4.499161    4.447655   13.718782    ( 0.0000,  0.0000,  0.0000)
  24 Cu     3.188200    3.149813   15.490384    ( 0.0000,  0.0000,  0.0000)
  25 Cu     5.804573    3.151111   15.500456    ( 0.0000,  0.0000,  0.0000)
  26 Cu     4.501705    1.832079   17.319490    ( 0.0000,  0.0000,  0.0000)
  27 Cu     4.484260    4.464858   17.320449    ( 0.0000,  0.0000,  0.0000)
  28 Cu     3.197433    3.167885   19.195300    ( 0.0000,  0.0000,  0.0000)
  29 Cu     5.800413    3.145396   19.093606    ( 0.0000,  0.0000,  0.0000)
  30 Cu     1.890511    4.440999   10.121326    ( 0.0000,  0.0000,  0.0000)
  31 Cu     1.874163    7.075637   10.083836    ( 0.0000,  0.0000,  0.0000)
  32 Cu     0.566416    5.763946   11.919305    ( 0.0000,  0.0000,  0.0000)
  33 Cu     3.192659    5.764326   11.919993    ( 0.0000,  0.0000,  0.0000)
  34 Cu     1.885510    4.451146   13.711781    ( 0.0000,  0.0000,  0.0000)
  35 Cu     1.882920    7.072619   13.730947    ( 0.0000,  0.0000,  0.0000)
  36 Cu     0.580410    5.759479   15.482626    ( 0.0000,  0.0000,  0.0000)
  37 Cu     3.193210    5.761783   15.482592    ( 0.0000,  0.0000,  0.0000)
  38 Cu     1.895584    4.450957   17.316397    ( 0.0000,  0.0000,  0.0000)
  39 Cu     1.885610    7.082335   17.314746    ( 0.0000,  0.0000,  0.0000)
  40 Cu     0.574353    5.761220   19.107460    ( 0.0000,  0.0000,  0.0000)
  41 Cu     3.187315    5.747216   19.186169    ( 0.0000,  0.0000,  0.0000)
  42 Cu     7.114953    4.432901   10.114511    ( 0.0000,  0.0000,  0.0000)
  43 Cu     7.107943    7.083340   10.070543    ( 0.0000,  0.0000,  0.0000)
  44 Cu     5.806498    5.762819   11.918176    ( 0.0000,  0.0000,  0.0000)
  45 Cu     7.110571    4.448875   13.724746    ( 0.0000,  0.0000,  0.0000)
  46 Cu     7.116051    7.067986   13.742141    ( 0.0000,  0.0000,  0.0000)
  47 Cu     5.801205    5.760875   15.489916    ( 0.0000,  0.0000,  0.0000)
  48 Cu     7.121007    4.462330   17.304411    ( 0.0000,  0.0000,  0.0000)
  49 Cu     7.119200    7.078515   17.317195    ( 0.0000,  0.0000,  0.0000)
  50 Cu     5.807740    5.773678   19.127108    ( 0.0000,  0.0000,  0.0000)
  51 Cu     4.483355    7.057658   10.077498    ( 0.0000,  0.0000,  0.0000)
  52 Cu     4.499362    7.069427   13.728043    ( 0.0000,  0.0000,  0.0000)
  53 Cu     4.494780    7.091728   17.323417    ( 0.0000,  0.0000,  0.0000)
  54 Cl     3.143944    4.408592   21.523656    ( 0.0000,  0.0000,  0.0000)
  55 Cl     4.527393    3.146802    7.793308    ( 0.0000,  0.0000,  0.0000)
  56 Cl     1.904212    5.695977    7.959259    ( 0.0000,  0.0000,  0.0000)
  57 Cl     0.581195    2.027402   21.232344    ( 0.0000,  0.0000,  0.0000)
  58 Cl     5.822911    6.860112   21.304815    ( 0.0000,  0.0000,  0.0000)
  59 Cl     7.002247    0.406278    7.746418    ( 0.0000,  0.0000,  0.0000)
  60 Cl     7.140900    5.702087    8.057913    ( 0.0000,  0.0000,  0.0000)
  61 Cl     5.813577    1.895711   21.542686    ( 0.0000,  0.0000,  0.0000)
  62 Cl     0.587421    7.358944   21.464562    ( 0.0000,  0.0000,  0.0000)
  63 Cl     1.763916    0.518726    7.793557    ( 0.0000,  0.0000,  0.0000)
  64 Cl     4.524950    5.762939    7.955849    ( 0.0000,  0.0000,  0.0000)
  65 Cl     3.189320    1.720552   21.215212    ( 0.0000,  0.0000,  0.0000)
  66 Cl     5.780656    4.288233   21.414885    ( 0.0000,  0.0000,  0.0000)
  67 Cl     1.885606    3.106629    7.908323    ( 0.0000,  0.0000,  0.0000)
  68 Cl     4.385880    0.518005    7.836768    ( 0.0000,  0.0000,  0.0000)
  69 Cl     3.208096    7.110967   21.186929    ( 0.0000,  0.0000,  0.0000)
  70 Cl     0.572792    4.760377   21.252551    ( 0.0000,  0.0000,  0.0000)
  71 Cl     7.116557    3.017519    7.929096    ( 0.0000,  0.0000,  0.0000)

Unit cell:
           periodic     x           y           z      points  spacing
  1. axis:    yes    7.851007    0.000000    0.000000    45     0.1655
  2. axis:    yes    2.617002    7.851007    0.000000    48     0.1636
  3. axis:    yes    0.000000    0.000000   30.683867   175     0.1753

  Lengths:   7.851007   8.275688  30.683867
  Angles:   90.000000  90.000000  71.565053

Effective grid spacing dv^(1/3) = 0.1710

     iter     time        total  log10-change:
                         energy  eigst   dens
iter:   1 16:55:52 -4730.885245  -1.63
iter:   2 16:56:49 -4731.088332  -1.71  -1.75
iter:   3 16:57:46 -4725.962786  -2.58  -1.75
iter:   4 16:58:43 -4724.692013  -3.27  -2.04
iter:   5 16:59:40 -4724.541119  -3.98  -2.43
iter:   6 17:00:37 -4724.515006c -3.91  -2.64
iter:   7 17:01:36 -4724.522611c -4.01  -2.79
iter:   8 17:02:33 -4724.495611c -4.70  -2.75
iter:   9 17:03:31 -4724.521708c -4.52  -3.05
iter:  10 17:04:28 -4724.520464c -4.57  -2.86
iter:  11 17:05:25 -4724.497340c -5.43  -2.78
iter:  12 17:06:22 -4724.494475c -5.32  -3.07
iter:  13 17:07:20 -4724.492588c -5.46  -3.40
iter:  14 17:08:16 -4724.492369c -6.21  -3.66
iter:  15 17:09:13 -4724.492180c -5.99  -3.73
iter:  16 17:10:10 -4724.492126c -6.97  -4.02c
iter:  17 17:11:08 -4724.492209c -6.74  -4.11c
iter:  18 17:12:05 -4724.492010c -7.46c -4.26c

Converged after 18 iterations.

Dipole moment: (-14.015422, -41.878344, -0.055596) |e|*Ang

Energy contributions relative to reference atoms: (reference = -2657147.488543)

Kinetic:       +648.501302
Potential:     -641.507986
External:        +0.000000
XC:            -4730.329294
Entropy (-ST):   -1.012994
Local:           -0.649536
--------------------------
Free energy:   -4724.998507
Extrapolated:  -4724.492010

Showing only first 2 kpts
 Kpt  Band  Eigenvalues  Occupancy
  0   358      0.72500    0.88361
  0   359      0.80906    0.50913
  0   360      0.81878    0.47309
  0   361      0.90001    0.24180

  1   358      0.65245    1.24101
  1   359      0.68861    1.06492
  1   360      0.70805    0.96781
  1   361      0.72611    0.87812


Fermi level: 0.70161

No gap

Forces in eV/Ang:
  0 Cu    0.00016    0.00284   -0.07291
  1 Cu   -0.00223    0.02151   -0.11241
  2 Cu    0.00215    0.07632   -0.12632
  3 Cu   -0.01690   -0.00610   -0.14291
  4 Cu   -0.01730   -0.00288    0.19651
  5 Cu    0.01417   -0.00061    0.18275
  6 Cu    0.03807    0.04107    0.06706
  7 Cu    0.01115    0.04270    0.06788
  8 Cu    0.00312   -0.03313    0.10790
  9 Cu    0.01063    0.00512   -0.14465
 10 Cu   -0.03417   -0.02439    0.17999
 11 Cu   -0.02422   -0.00797    0.09799
 12 Cu    0.00607    0.00934   -0.05467
 13 Cu   -0.02253    0.08004   -0.13968
 14 Cu    0.00658   -0.02002   -0.17990
 15 Cu    0.00073   -0.00148    0.12794
 16 Cu    0.03071    0.07042   -0.00901
 17 Cu   -0.01180   -0.05039    0.12607
 18 Cu   -0.01289   -0.02292   -0.08241
 19 Cu   -0.01046   -0.02370   -0.05081
 20 Cu    0.00965   -0.02228   -0.19409
 21 Cu   -0.01774   -0.01241   -0.19278
 22 Cu    0.00345   -0.01707   -0.16590
 23 Cu   -0.00620    0.01154   -0.04254
 24 Cu    0.02012   -0.03050    0.14073
 25 Cu    0.00779   -0.02021    0.13144
 26 Cu   -0.07001    0.08792    0.04345
 27 Cu   -0.00812    0.02452    0.15103
 28 Cu    0.00216    0.02758    0.10071
 29 Cu    0.01987    0.07619    0.09420
 30 Cu   -0.00254   -0.01422   -0.07466
 31 Cu   -0.00165    0.02317   -0.07218
 32 Cu    0.01043   -0.00347   -0.11922
 33 Cu   -0.00539   -0.02080   -0.15092
 34 Cu   -0.01643   -0.00124   -0.04794
 35 Cu    0.00253    0.00155   -0.12062
 36 Cu   -0.00884    0.00580    0.19341
 37 Cu   -0.00782    0.01385    0.17448
 38 Cu    0.01545   -0.00117    0.14163
 39 Cu    0.04836   -0.12500    0.07912
 40 Cu   -0.02055   -0.03047    0.09165
 41 Cu    0.00296   -0.00527    0.07925
 42 Cu    0.01996    0.00161   -0.06155
 43 Cu   -0.00546    0.01616   -0.05302
 44 Cu   -0.00569   -0.02237   -0.13236
 45 Cu    0.02009    0.01229   -0.08750
 46 Cu   -0.00906    0.01265   -0.15419
 47 Cu    0.00912    0.00886    0.17573
 48 Cu   -0.01976   -0.03373    0.08596
 49 Cu   -0.04269   -0.05528    0.03026
 50 Cu    0.02319    0.01905    0.08977
 51 Cu    0.00396    0.04547   -0.05919
 52 Cu   -0.00139    0.01585   -0.11248
 53 Cu   -0.00825   -0.06486    0.08385
 54 Cl   -0.00012   -0.00210    0.13566
 55 Cl   -0.11167    0.08201    0.01143
 56 Cl    0.02722   -0.06253    0.00912
 57 Cl   -0.00947    0.06876   -0.23842
 58 Cl    0.04402   -0.23122   -0.13545
 59 Cl   -0.06130   -0.07426   -0.09849
 60 Cl   -0.00300   -0.03956    0.22473
 61 Cl   -0.02509   -0.00842    0.39077
 62 Cl   -0.02247    0.48617    0.22679
 63 Cl    0.03654    0.00204   -0.00984
 64 Cl    0.00732    0.04642    0.08323
 65 Cl    0.03152   -0.14112   -0.43500
 66 Cl   -0.02187   -0.46414    0.16462
 67 Cl    0.14113    0.00871    0.04159
 68 Cl    0.02333    0.07001    0.07275
 69 Cl   -0.01216   -0.01648   -0.41306
 70 Cl    0.02392    0.28813   -0.21090
 71 Cl   -0.00208   -0.08083    0.09984

System changes: positions 

Initializing position-dependent things.

Density initialized from wave functions
                                     
                                     
                                     
                                     
            Cl                       
                  Cl    Cl           
          Cl    Cl    Cl             
                     Cl              
        Cl Cu Cl Cu    Cu            
               Cu    Cu     Cu       
         Cu           Cu             
       Cu    CCu   CCu    Cu         
           Cu    Cu    Cu            
           Cu     Cu    Cu           
         Cu    Cu    CCu   Cu        
             Cu    Cu     Cu         
       Cu     Cu    Cu               
           Cu    CCu   CCu           
         Cu    Cu    CCu   Cu        
                                     
       Cu    CCu   CCu    Cu         
           Cu     Cu    Cu Cl        
              Cl    Cl               
            Cl     Cl    Cl          
                                     
          Cl     Cl    Cl            
                                     
                                     
                                     
                                     

Positions:
   0 Cu     1.868654    1.812921   10.072271    ( 0.0000,  0.0000,  0.0000)
   1 Cu     0.563783    0.513233   11.889226    ( 0.0000,  0.0000,  0.0000)
   2 Cu     3.182123    0.482970   11.900957    ( 0.0000,  0.0000,  0.0000)
   3 Cu     1.882305    1.823463   13.730695    ( 0.0000,  0.0000,  0.0000)
   4 Cu     0.573217    0.533553   15.469765    ( 0.0000,  0.0000,  0.0000)
   5 Cu     3.190339    0.533342   15.481912    ( 0.0000,  0.0000,  0.0000)
   6 Cu     1.866005    1.827802   17.322733    ( 0.0000,  0.0000,  0.0000)
   7 Cu     0.560867    0.522005   19.199946    ( 0.0000,  0.0000,  0.0000)
   8 Cu     3.214356    0.559866   19.154313    ( 0.0000,  0.0000,  0.0000)
   9 Cu     0.563004    3.130416   11.922409    ( 0.0000,  0.0000,  0.0000)
  10 Cu     0.577220    3.151007   15.474983    ( 0.0000,  0.0000,  0.0000)
[...]
 50 Cu   -0.00207    0.00194   -0.00520
 51 Cu    0.00841   -0.00427   -0.00032
 52 Cu   -0.00960   -0.01120   -0.00636
 53 Cu   -0.00045    0.00608   -0.00925
 54 Cl    0.00122    0.01499    0.03930
 55 Cl   -0.01331    0.02308    0.00747
 56 Cl   -0.00339   -0.00342   -0.00964
 57 Cl   -0.00419    0.01798   -0.00731
 58 Cl   -0.00916    0.00260    0.00891
 59 Cl   -0.01425    0.00485   -0.00432
 60 Cl    0.00556    0.01320   -0.00267
 61 Cl    0.02512    0.00213    0.04035
 62 Cl   -0.00373   -0.01024   -0.03638
 63 Cl    0.01214    0.01515   -0.01172
 64 Cl    0.00738   -0.01016   -0.01730
 65 Cl    0.00707    0.00817   -0.01104
 66 Cl    0.01853   -0.00322    0.01332
 67 Cl    0.00554    0.00732    0.00941
 68 Cl    0.02205    0.00257    0.01703
 69 Cl   -0.01807   -0.02342   -0.01408
 70 Cl    0.00650   -0.00296   -0.01857
 71 Cl    0.01123   -0.00286    0.01678

System changes: positions 

Initializing position-dependent things.

Density initialized from wave functions
                                          
                                          
                                          
                                          
                                          
                                          
               Cl                         
                                          
                       Cll                
                         Cl               
            Cl         Cl                 
                                          
               Cl                         
        Cl   Cu    CCl    Cu              
                 Cu    Cu     Cu          
           Cu     Cu    Cu                
          Cu   CCu    CCu   Cu            
                                          
             CCu   CCu    Cu              
           Cu    CCu   CCu    Cu          
                                          
          Cu   CCu    Cu    Cu            
             CCu   CCu    Cu              
                 Cu           Cu          
           Cu     Cu   CCu                
          Cu   CCu    Cu    Cu            
                                Cl        
              Cu    Cu     Cu             
                  Cl     Cl               
                         Cl               
         Cl      Cl                       
               Cl                         
                       Cl                 
                                          
                        Cl                
                                          
                                          
                                          
                                          

Positions:
   0 Cu     1.948893    1.889647    9.852479    ( 0.0000,  0.0000,  0.0000)
   1 Cu     0.577468    0.568444   11.807151    ( 0.0000,  0.0000,  0.0000)
   2 Cu     3.191603    0.565667   11.787412    ( 0.0000,  0.0000,  0.0000)
   3 Cu     1.877504    1.855255   13.671070    ( 0.0000,  0.0000,  0.0000)
   4 Cu     0.562437    0.550687   15.493139    ( 0.0000,  0.0000,  0.0000)
   5 Cu     3.192830    0.538361   15.501617    ( 0.0000,  0.0000,  0.0000)
   6 Cu     1.864744    1.842161   17.338852    ( 0.0000,  0.0000,  0.0000)
   7 Cu     0.632743    0.543659   19.209316    ( 0.0000,  0.0000,  0.0000)
   8 Cu     3.249522    0.585264   19.291757    ( 0.0000,  0.0000,  0.0000)
   9 Cu     0.574261    3.156133   11.817855    ( 0.0000,  0.0000,  0.0000)
  10 Cu     0.539202    3.168111   15.498805    ( 0.0000,  0.0000,  0.0000)
  11 Cu     0.484736    3.166918   19.216495    ( 0.0000,  0.0000,  0.0000)
  12 Cu     7.187591    1.846853    9.971084    ( 0.0000,  0.0000,  0.0000)
  13 Cu     5.799670    0.563702   11.809663    ( 0.0000,  0.0000,  0.0000)
  14 Cu     7.102561    1.861617   13.657857    ( 0.0000,  0.0000,  0.0000)
  15 Cu     5.796570    0.551973   15.493268    ( 0.0000,  0.0000,  0.0000)
  16 Cu     7.092436    1.841431   17.370941    ( 0.0000,  0.0000,  0.0000)
  17 Cu     5.881918    0.522810   19.284369    ( 0.0000,  0.0000,  0.0000)
  18 Cu     4.581957    1.861383    9.878013    ( 0.0000,  0.0000,  0.0000)
  19 Cu     4.453906    4.499818    9.926053    ( 0.0000,  0.0000,  0.0000)
  20 Cu     3.174304    3.148741   11.784634    ( 0.0000,  0.0000,  0.0000)
  21 Cu     5.780576    3.156677   11.787795    ( 0.0000,  0.0000,  0.0000)
  22 Cu     4.479897    1.867777   13.655002    ( 0.0000,  0.0000,  0.0000)
  23 Cu     4.474516    4.470466   13.659700    ( 0.0000,  0.0000,  0.0000)
  24 Cu     3.168436    3.170974   15.512464    ( 0.0000,  0.0000,  0.0000)
  25 Cu     5.782183    3.156631   15.503192    ( 0.0000,  0.0000,  0.0000)
  26 Cu     4.483174    1.833760   17.364607    ( 0.0000,  0.0000,  0.0000)
  27 Cu     4.485402    4.480834   17.356490    ( 0.0000,  0.0000,  0.0000)
  28 Cu     3.112241    3.175384   19.128633    ( 0.0000,  0.0000,  0.0000)
  29 Cu     5.743662    3.176909   19.243779    ( 0.0000,  0.0000,  0.0000)
  30 Cu     1.816695    4.465684   10.003287    ( 0.0000,  0.0000,  0.0000)
  31 Cu     1.843439    7.095160    9.992824    ( 0.0000,  0.0000,  0.0000)
  32 Cu     0.532704    5.778208   11.818825    ( 0.0000,  0.0000,  0.0000)
  33 Cu     3.172222    5.788836   11.809901    ( 0.0000,  0.0000,  0.0000)
  34 Cu     1.865503    4.476888   13.658510    ( 0.0000,  0.0000,  0.0000)
  35 Cu     1.869448    7.092370   13.654696    ( 0.0000,  0.0000,  0.0000)
  36 Cu     0.549317    5.780146   15.496493    ( 0.0000,  0.0000,  0.0000)
  37 Cu     3.180044    5.788155   15.505533    ( 0.0000,  0.0000,  0.0000)
  38 Cu     1.838365    4.474787   17.337089    ( 0.0000,  0.0000,  0.0000)
  39 Cu     1.882834    7.100552   17.348722    ( 0.0000,  0.0000,  0.0000)
  40 Cu     0.544717    5.746964   19.169852    ( 0.0000,  0.0000,  0.0000)
  41 Cu     3.173146    5.778598   19.185669    ( 0.0000,  0.0000,  0.0000)
  42 Cu     7.041696    4.474271    9.950049    ( 0.0000,  0.0000,  0.0000)
  43 Cu     7.053324    7.076799    9.971136    ( 0.0000,  0.0000,  0.0000)
  44 Cu     5.753819    5.782112   11.779264    ( 0.0000,  0.0000,  0.0000)
  45 Cu     7.079267    4.472712   13.649875    ( 0.0000,  0.0000,  0.0000)
  46 Cu     7.100405    7.090383   13.644001    ( 0.0000,  0.0000,  0.0000)
  47 Cu     5.791456    5.787396   15.491805    ( 0.0000,  0.0000,  0.0000)
  48 Cu     7.058484    4.464953   17.374364    ( 0.0000,  0.0000,  0.0000)
  49 Cu     7.124690    7.097285   17.366893    ( 0.0000,  0.0000,  0.0000)
  50 Cu     5.815148    5.765415   19.234392    ( 0.0000,  0.0000,  0.0000)
  51 Cu     4.487807    7.071581    9.942768    ( 0.0000,  0.0000,  0.0000)
  52 Cu     4.489082    7.101564   13.656382    ( 0.0000,  0.0000,  0.0000)
  53 Cu     4.511041    7.110389   17.364889    ( 0.0000,  0.0000,  0.0000)
  54 Cl     1.892554    4.467930   20.831668    ( 0.0000,  0.0000,  0.0000)
  55 Cl     5.174884    4.211126    4.724164    ( 0.0000,  0.0000,  0.0000)
  56 Cl     1.437123    5.643053    4.700474    ( 0.0000,  0.0000,  0.0000)
  57 Cl    -0.309290    1.799710   20.977867    ( 0.0000,  0.0000,  0.0000)
  58 Cl     5.854817    4.856950   23.316106    ( 0.0000,  0.0000,  0.0000)
  59 Cl     6.508865   -0.228125    5.028579    ( 0.0000,  0.0000,  0.0000)
  60 Cl     8.402936    5.810874    8.361045    ( 0.0000,  0.0000,  0.0000)
  61 Cl     6.244573    0.336454   26.238311    ( 0.0000,  0.0000,  0.0000)
  62 Cl     0.924469    7.178793   24.494558    ( 0.0000,  0.0000,  0.0000)
  63 Cl     0.531544    0.330656    8.290348    ( 0.0000,  0.0000,  0.0000)
  64 Cl     5.343730    5.946880    5.735481    ( 0.0000,  0.0000,  0.0000)
  65 Cl     4.275783    2.259720   20.934019    ( 0.0000,  0.0000,  0.0000)
  66 Cl     5.942482    3.217484   24.490725    ( 0.0000,  0.0000,  0.0000)
  67 Cl     3.071046    3.747629    8.167923    ( 0.0000,  0.0000,  0.0000)
  68 Cl     3.761523    0.519026    8.129934    ( 0.0000,  0.0000,  0.0000)
  69 Cl     4.424011    6.947208   20.885153    ( 0.0000,  0.0000,  0.0000)
  70 Cl    -0.170331    6.958721   21.016889    ( 0.0000,  0.0000,  0.0000)
  71 Cl     6.327818    3.070201    8.177245    ( 0.0000,  0.0000,  0.0000)

Unit cell:
           periodic     x           y           z      points  spacing
  1. axis:    yes    7.851007    0.000000    0.000000    45     0.1655
  2. axis:    yes    2.617002    7.851007    0.000000    48     0.1636
  3. axis:    yes    0.000000    0.000000   30.683867   175     0.1753

  Lengths:   7.851007   8.275688  30.683867
  Angles:   90.000000  90.000000  71.565053

Effective grid spacing dv^(1/3) = 0.1710

     iter     time        total  log10-change:
                         energy  eigst   dens
iter:   1 17:58:22 -4740.986124  -3.56
iter:   2 17:59:11 -4740.985662  -4.80  -3.38
iter:   3 17:59:59 -4740.986746c -5.27  -3.44
iter:   4 18:01:03 -4740.983347c -4.93  -3.36
iter:   5 18:01:52 -4740.982868c -6.14  -3.76
iter:   6 18:02:41 -4740.983402c -5.22  -3.86
iter:   7 18:03:30 -4740.983022c -6.45  -4.08c
iter:   8 18:04:19 -4740.982767c -5.89  -4.25c
iter:   9 18:05:08 -4740.982721c -6.90  -4.34c
iter:  10 18:05:57 -4740.982707c -7.26  -4.45c
iter:  11 18:07:14 -4740.982703c -7.07  -4.59c
iter:  12 18:08:09 -4740.982697c -7.92c -4.89c

Converged after 12 iterations.

Dipole moment: (-25.466067, -34.530514, 0.039517) |e|*Ang

Energy contributions relative to reference atoms: (reference = -2657147.488543)

Kinetic:       +548.890537
Potential:     -571.914608
External:        +0.000000
XC:            -4716.928873
Entropy (-ST):   -0.549800
Local:           -0.754853
--------------------------
Free energy:   -4741.257597
Extrapolated:  -4740.982697

Showing only first 2 kpts
 Kpt  Band  Eigenvalues  Occupancy
  0   358      0.14287    1.96121
  0   359      0.31394    1.80270
  0   360      0.36257    1.69779
  0   361      0.56236    0.86487

  1   358      0.37252    1.67138
  1   359      0.41109    1.55141
  1   360      0.60907    0.64644
  1   361      0.69136    0.34676


Fermi level: 0.53517

No gap

Forces in eV/Ang:
  0 Cu    0.00460   -0.01325   -0.00512
  1 Cu   -0.00155   -0.00562    0.00382
  2 Cu    0.00293   -0.00340    0.00051
  3 Cu    0.00342   -0.00558    0.00267
  4 Cu   -0.00097    0.00016    0.00543
  5 Cu   -0.00620    0.00212    0.00062
  6 Cu    0.00457    0.00242    0.00518
  7 Cu   -0.00662    0.00790   -0.01259
  8 Cu   -0.00894   -0.00327    0.00180
  9 Cu    0.00422   -0.00156   -0.00245
 10 Cu    0.00666   -0.00608    0.01045
 11 Cu    0.00902    0.00722   -0.00260
 12 Cu    0.01095    0.00795   -0.00641
 13 Cu    0.00180   -0.00136    0.00088
 14 Cu    0.00461   -0.00201    0.00391
 15 Cu   -0.00345    0.00150   -0.00225
 16 Cu   -0.00099   -0.00516    0.00999
 17 Cu   -0.01110   -0.00351    0.01332
 18 Cu    0.00308    0.00406   -0.00338
 19 Cu    0.00453    0.00499    0.00880
 20 Cu    0.00391   -0.00289    0.00390
 21 Cu    0.00716   -0.00304    0.00331
 22 Cu    0.00186   -0.00417    0.00506
 23 Cu    0.00399   -0.00854    0.00537
 24 Cu    0.00444   -0.00324    0.00187
 25 Cu    0.01077   -0.00092    0.00097
 26 Cu    0.00301    0.00819    0.00228
 27 Cu   -0.00479   -0.00322   -0.00228
 28 Cu    0.00947   -0.00075    0.00198
 29 Cu    0.00752    0.00776    0.00496
 30 Cu   -0.00042   -0.01083   -0.01155
 31 Cu   -0.00021   -0.00406    0.00168
 32 Cu   -0.00001   -0.00046   -0.00223
 33 Cu   -0.00873   -0.00912    0.00248
 34 Cu   -0.00114   -0.00373    0.00716
 35 Cu   -0.00846   -0.00360    0.00856
 36 Cu   -0.00183   -0.00095    0.01409
 37 Cu    0.00023   -0.00086    0.00477
 38 Cu    0.00928    0.00482   -0.00267
 39 Cu   -0.00303    0.00011   -0.00103
 40 Cu   -0.00936    0.00716    0.00557
 41 Cu   -0.00805    0.00224   -0.00887
 42 Cu    0.00067   -0.00193    0.00807
 43 Cu    0.00089    0.00191    0.00157
 44 Cu   -0.00556    0.00087    0.01042
 45 Cu    0.00663    0.00285    0.00690
 46 Cu   -0.00439   -0.00042    0.00303
 47 Cu   -0.00110    0.00212    0.00690
 48 Cu   -0.00108   -0.00638    0.00194
 49 Cu    0.00121    0.00894    0.00119
 50 Cu    0.00045    0.00169   -0.01297
 51 Cu    0.00155    0.00089    0.00382
 52 Cu   -0.00816   -0.00751    0.00069
 53 Cu   -0.00358    0.00263   -0.00804
 54 Cl   -0.00124    0.01780    0.00894
 55 Cl   -0.00645    0.00560   -0.00622
 56 Cl   -0.00334    0.00431   -0.01456
 57 Cl   -0.00139    0.01076   -0.01691
 58 Cl   -0.01288    0.00393   -0.00600
 59 Cl   -0.01669    0.01207   -0.00676
 60 Cl   -0.00387    0.00682   -0.00630
 61 Cl    0.01632   -0.01976   -0.01522
 62 Cl   -0.00202    0.00764   -0.01927
 63 Cl    0.00878    0.01122   -0.01625
 64 Cl    0.00796    0.00057   -0.00633
 65 Cl    0.00487   -0.00115    0.00571
 66 Cl    0.01600   -0.01204    0.00610
 67 Cl    0.00274    0.00480   -0.00299
 68 Cl    0.00256    0.00342   -0.00380
 69 Cl   -0.01558   -0.01906   -0.01006
 70 Cl   -0.01164   -0.00811    0.00970
 71 Cl    0.00957    0.00423    0.00588

Timing:                                      incl.     excl.
-------------------------------------------------------------------
Density initialized from wave functions:   418.281   418.277   0.4% |
 Symmetrize density:                         0.004     0.004   0.0% |
Forces:                                   1894.983  1894.983   1.9% ||
Hamiltonian:                               642.713     1.380   0.0% |
 Atomic:                                    26.959     6.575   0.0% |
  XC Correction:                            20.384    20.384   0.0% |
 Calculate atomic Hamiltonians:            181.804   181.804   0.2% |
 Communicate:                                7.398     7.398   0.0% |
 Initialize Hamiltonian:                     0.002     0.002   0.0% |
 Poisson:                                    0.455     0.455   0.0% |
 XC 3D grid:                               424.716    62.157   0.1% |
  VdW-DF integral:                         362.559    18.048   0.0% |
   Convolution:                             27.040    27.040   0.0% |
   FFT:                                     13.815    13.815   0.0% |
   gather:                                 108.276   108.276   0.1% |
   hmm1:                                     8.237     8.237   0.0% |
   hmm2:                                    20.310    20.310   0.0% |
   iFFT:                                    15.007    15.007   0.0% |
   potential:                              146.871     2.063   0.0% |
    collect:                                21.292    21.292   0.0% |
    p1:                                     70.794    70.794   0.1% |
    p2:                                     30.786    30.786   0.0% |
    sum:                                    21.937    21.937   0.0% |
   splines:                                  4.955     4.955   0.0% |
LCAO initialization:                       274.112     0.550   0.0% |
 LCAO eigensolver:                          15.679     0.002   0.0% |
  Blacs Orbital Layouts:                     0.803     0.001   0.0% |
   General diagonalize:                      0.787     0.787   0.0% |
   Redistribute coefs:                       0.009     0.009   0.0% |
   Send coefs to domains:                    0.006     0.006   0.0% |
  Calculate projections:                     0.010     0.010   0.0% |
  Distribute overlap matrix:                14.384     0.001   0.0% |
   Scalapack redistribute:                   0.024     0.024   0.0% |
   blocked summation:                       14.359    14.359   0.0% |
  Potential matrix:                          0.323     0.323   0.0% |
  SparseAtomicCorrection:                    0.018     0.018   0.0% |
  Sum over cells:                            0.139     0.139   0.0% |
 LCAO to grid:                             254.806   254.806   0.3% |
 Set positions (LCAO WFS):                   3.077     0.013   0.0% |
  Basic WFS set positions:                   0.003     0.003   0.0% |
  Basis functions set positions:             0.000     0.000   0.0% |
  P tci:                                     0.000     0.000   0.0% |
  ST tci:                                    0.477     0.477   0.0% |
  Scalapack redistribute:                    0.045     0.045   0.0% |
  blocked summation:                         2.359     2.359   0.0% |
  mktci:                                     0.178     0.178   0.0% |
PWDescriptor:                                0.713     0.713   0.0% |
Redistribute:                                0.223     0.223   0.0% |
SCF-cycle:                               94389.782  2180.140   2.2% ||
 Davidson:                               71400.947 18498.596  18.8% |-------|
  Apply H:                                6799.266  6679.017   6.8% |--|
   HMM T:                                  120.248   120.248   0.1% |
  Subspace diag:                         12039.097     0.377   0.0% |
   calc_h_matrix:                         8718.708  2064.126   2.1% ||
    Apply H:                              6654.582  6531.836   6.6% |--|
     HMM T:                                122.745   122.745   0.1% |
   diagonalize:                            416.625   416.625   0.4% |
   rotate_psi:                            2903.387  2903.387   3.0% ||
  calc. matrices:                        26268.657 12904.827  13.1% |----|
   Apply H:                              13363.830 13125.448  13.4% |----|
    HMM T:                                 238.382   238.382   0.2% |
  diagonalize:                            2352.785  2352.785   2.4% ||
  rotate_psi:                             5442.547  5442.547   5.5% |-|
 Density:                                 8008.933     0.077   0.0% |
  Atomic density matrices:                  22.983    22.983   0.0% |
  Mix:                                    4276.288  4276.288   4.4% |-|
  Multipole moments:                         1.541     1.541   0.0% |
  Pseudo density:                         3708.044  3707.977   3.8% |-|
   Symmetrize density:                       0.067     0.067   0.0% |
 Hamiltonian:                            12434.085    27.129   0.0% |
  Atomic:                                  536.524   138.868   0.1% |
   XC Correction:                          397.656   397.656   0.4% |
  Calculate atomic Hamiltonians:          3627.824  3627.824   3.7% ||
  Communicate:                             130.300   130.300   0.1% |
  Poisson:                                   9.094     9.094   0.0% |
  XC 3D grid:                             8103.213  1123.220   1.1% |
   VdW-DF integral:                       6979.993   353.924   0.4% |
    Convolution:                           529.461   529.461   0.5% |
    FFT:                                   282.091   282.091   0.3% |
    gather:                               2131.188  2131.188   2.2% ||
    hmm1:                                  163.517   163.517   0.2% |
    hmm2:                                  402.731   402.731   0.4% |
    iFFT:                                  289.695   289.695   0.3% |
    potential:                            2827.370    37.749   0.0% |
     collect:                              397.253   397.253   0.4% |
     p1:                                  1377.738  1377.738   1.4% ||
     p2:                                   575.601   575.601   0.6% |
     sum:                                  439.029   439.029   0.4% |
    splines:                                 0.017     0.017   0.0% |
 Orthonormalize:                           365.676     0.033   0.0% |
  calc_s_matrix:                            49.718    49.718   0.1% |
  inverse-cholesky:                         20.642    20.642   0.0% |
  projections:                             220.686   220.686   0.2% |
  rotate_psi_s:                             74.598    74.598   0.1% |
Set symmetry:                                0.001     0.001   0.0% |
Other:                                     638.452   638.452   0.6% |
-------------------------------------------------------------------
Total:                                             98259.261 100.0%

Memory usage: 1.43 GiB
Date: Tue Oct 18 18:08:29 2022
