
  ___ ___ ___ _ _ _  
 |   |   |_  | | | | 
 | | | | | . | | | | 
 |__ |  _|___|_____|  22.1.0
 |___|_|             

User:   thorkong@node030.cluster
Date:   Sun Oct  9 05:07:49 2022
Arch:   x86_64
Pid:    6938
Python: 3.10.5
gpaw:   /groups/kemi/thorkong/miniconda3/envs/gpaw22/lib/python3.10/site-packages/gpaw
_gpaw:  /groups/kemi/thorkong/miniconda3/envs/gpaw22/lib/python3.10/site-packages/
        _gpaw.cpython-310-x86_64-linux-gnu.so
ase:    /groups/kemi/thorkong/miniconda3/envs/gpaw22/lib/python3.10/site-packages/ase (version 3.22.1)
numpy:  /groups/kemi/thorkong/miniconda3/envs/gpaw22/lib/python3.10/site-packages/numpy (version 1.23.0)
scipy:  /groups/kemi/thorkong/miniconda3/envs/gpaw22/lib/python3.10/site-packages/scipy (version 1.8.1)
libxc:  5.2.3
units:  Angstrom and eV
cores: 32
OpenMP: True
OMP_NUM_THREADS: 1

Input parameters:
  basis: dzp
  kpts: [4 4 1]
  mode: {ecut: 600.0,
         name: pw}
  xc: BEEF-vdW

System changes: positions, numbers, cell, pbc, initial_charges, initial_magmoms 

Initialize ...

Cu-setup:
  name: Copper
  id: f1c4d45d90492f1bbfdcb091e8418fdf
  Z: 29.0
  valence: 11
  core: 18
  charge: 0.0
  file: /groups/kemi/thorkong/miniconda3/envs/gpaw22/share/gpaw/Cu.PBE.gz
  compensation charges: gauss, rc=0.33, lmax=2
  cutoffs: 2.06(filt), 2.43(core),
  valence states:
                energy  radius
    4s(1.00)    -4.609   1.164
    4p(0.00)    -0.698   1.164
    3d(10.00)    -5.039   1.058
    *s          22.603   1.164
    *p          26.513   1.164
    *d          22.172   1.058

  LCAO basis set for Cu:
    Name: dzp
    File: /groups/kemi/thorkong/miniconda3/envs/gpaw22/share/gpaw/Cu.dzp.basis.gz
    Number of radial functions: 5
    Number of spherical harmonics: 15
      l=0, rc=8.9688 Bohr: 4s-sz confined orbital
      l=2, rc=5.1719 Bohr: 3d-sz confined orbital
      l=0, rc=5.3281 Bohr: 4s-dz split-valence wave
      l=2, rc=3.1406 Bohr: 3d-dz split-valence wave
      l=1, rc=8.9688 Bohr: p-type Gaussian polarization

Cl-setup:
  name: Chlorine
  id: 726897f06f34e53cf8e33b5885a02604
  Z: 17.0
  valence: 7
  core: 10
  charge: 0.0
  file: /groups/kemi/thorkong/miniconda3/envs/gpaw22/share/gpaw/Cl.PBE.gz
  compensation charges: gauss, rc=0.25, lmax=2
  cutoffs: 1.40(filt), 1.49(core),
  valence states:
                energy  radius
    3s(2.00)   -20.689   0.794
    3p(5.00)    -8.594   0.794
    *s           6.523   0.794
    *p          18.617   0.794
    *d           0.000   0.794

  LCAO basis set for Cl:
    Name: dzp
    File: /groups/kemi/thorkong/miniconda3/envs/gpaw22/share/gpaw/Cl.dzp.basis.gz
    Number of radial functions: 5
    Number of spherical harmonics: 13
      l=0, rc=5.1719 Bohr: 3s-sz confined orbital
      l=1, rc=6.2656 Bohr: 3p-sz confined orbital
      l=0, rc=2.8281 Bohr: 3s-dz split-valence wave
      l=1, rc=3.5156 Bohr: 3p-dz split-valence wave
      l=2, rc=6.2656 Bohr: d-type Gaussian polarization

Reference energy: -2581817.792169

Spin-paired calculation

Convergence criteria:
 Maximum [total energy] change in last 3 cyles: 0.0005 eV / electron
 Maximum integral of absolute [dens]ity change: 0.0001 electrons / valence electron
 Maximum integral of absolute [eigenst]ate change: 4e-08 eV^2 / valence electron
 Maximum number of scf [iter]ations: 333
 (Square brackets indicate name in SCF output, whereas a 'c' in
 the SCF output indicates the quantity has converged.)

Symmetries present (total): 1

  ( 1  0  0)
  ( 0  1  0)
  ( 0  0  1)

16 k-points: 4 x 4 x 1 Monkhorst-Pack grid
8 k-points in the irreducible part of the Brillouin zone
       k-points in crystal coordinates                weights
   0:     0.12500000   -0.37500000    0.00000000          2/16
   1:     0.12500000   -0.12500000    0.00000000          2/16
   2:     0.12500000    0.12500000    0.00000000          2/16
   3:     0.12500000    0.37500000    0.00000000          2/16
   4:     0.37500000   -0.37500000    0.00000000          2/16
   5:     0.37500000   -0.12500000    0.00000000          2/16
   6:     0.37500000    0.12500000    0.00000000          2/16
   7:     0.37500000    0.37500000    0.00000000          2/16

Wave functions: Plane wave expansion
  Cutoff energy: 600.000 eV
  Number of coefficients (min, max): 63070, 63184
  Pulay-stress correction: 0.000000 eV/Ang^3 (de/decut=0.000000)
  Using FFTW library
  ScaLapack parameters: grid=2x2, blocksize=64
  Wavefunction extrapolation:
    Improved wavefunction reuse through dual PAW basis 

Occupation numbers: Fermi-Dirac: width=0.1000 eV
 

Eigensolver
   Davidson(niter=2) 

Densities:
  Coarse grid: 45*48*175 grid
  Fine grid: 90*96*350 grid
  Total Charge: 0.000000 

Density mixing:
  Method: separate
  Backend: pulay
  Linear mixing parameter: 0.05
  Mixing with 5 old densities
  Damping of long wave oscillations: 50 

Hamiltonian:
  XC and Coulomb potentials evaluated on a 90*96*350 grid
  Using the BEEF-vdW Exchange-Correlation functional
  External potential:
    NoExternalPotential
 

XC parameters: BEEF-vdW with 2 nearest neighbor stencil

Memory estimate:
  Process memory now: 253.28 MiB
  Calculator: 902.01 MiB
    Density: 47.05 MiB
      Arrays: 18.85 MiB
      Localized functions: 20.94 MiB
      Mixer: 7.25 MiB
    Hamiltonian: 12.84 MiB
      Arrays: 12.33 MiB
      XC: 0.00 MiB
      Poisson: 0.00 MiB
      vbar: 0.51 MiB
    Wavefunctions: 842.13 MiB
      Arrays psit_nG: 396.25 MiB
      Eigensolver: 426.86 MiB
      Projections: 1.77 MiB
      Projectors: 2.41 MiB
      PW-descriptor: 14.84 MiB

Total number of cores used: 32
Parallelization over k-points: 8
Domain decomposition: 1 x 1 x 4
                      2 x 2 x 8 (xc only)

Number of atoms: 66
Number of atomic orbitals: 966
Number of bands in calculation: 411
Number of valence electrons: 678
Bands to converge: occupied

... initialized

Initializing position-dependent things.

Density initialized from atomic densities
Creating initial wave functions:
  411 bands from LCAO basis set

                                     
                                     
                                     
                                     
                 Cl        Cl        
                                     
           Cl       Cl               
                       Cl            
           CuCl  Cu     Cu           
               Cu    Cu     Cu       
         Cu    Cu     Cu             
        Cu   CCu   CCu    Cu         
                                     
           Cu    CCu    Cu           
         Cu    Cu    CCu    Cu       
                                     
       Cu    CCu    Cu    Cu         
           Cu    CCu    Cu           
                                     
         Cu    CCu   CCu   Cu        
             Cu     Cu    Cu         
       Cu     Cu    Cu               
           Cu     Cu  ClCu           
            Cl                       
               Cl       Cl           
                                     
        Cl        Cl                 
                                     
                                     
                                     
                                     

Positions:
   0 Cu     1.880312    1.836925    9.995901    ( 0.0000,  0.0000,  0.0000)
   1 Cu     0.547739    0.533606   11.836371    ( 0.0000,  0.0000,  0.0000)
   2 Cu     3.185063    0.519214   11.853359    ( 0.0000,  0.0000,  0.0000)
   3 Cu     1.886106    1.834922   13.688547    ( 0.0000,  0.0000,  0.0000)
   4 Cu     0.579891    0.535407   15.549821    ( 0.0000,  0.0000,  0.0000)
   5 Cu     3.196139    0.524502   15.549087    ( 0.0000,  0.0000,  0.0000)
   6 Cu     1.884453    1.842499   17.414765    ( 0.0000,  0.0000,  0.0000)
   7 Cu     0.634415    0.548706   19.295142    ( 0.0000,  0.0000,  0.0000)
   8 Cu     3.251219    0.527470   19.212041    ( 0.0000,  0.0000,  0.0000)
   9 Cu     0.576186    3.147456   11.852674    ( 0.0000,  0.0000,  0.0000)
  10 Cu     0.569782    3.134860   15.549237    ( 0.0000,  0.0000,  0.0000)
  11 Cu     0.509578    3.122394   19.303428    ( 0.0000,  0.0000,  0.0000)
  12 Cu     7.106600    1.836347    9.970551    ( 0.0000,  0.0000,  0.0000)
  13 Cu     5.780179    0.523980   11.841576    ( 0.0000,  0.0000,  0.0000)
  14 Cu     7.111254    1.831254   13.704595    ( 0.0000,  0.0000,  0.0000)
  15 Cu     5.811045    0.518525   15.553514    ( 0.0000,  0.0000,  0.0000)
  16 Cu     7.111386    1.827260   17.417320    ( 0.0000,  0.0000,  0.0000)
  17 Cu     5.866828    0.503418   19.294322    ( 0.0000,  0.0000,  0.0000)
  18 Cu     4.501949    1.831603    9.988365    ( 0.0000,  0.0000,  0.0000)
  19 Cu     4.561536    4.430865    9.962119    ( 0.0000,  0.0000,  0.0000)
  20 Cu     3.217377    3.140184   11.840282    ( 0.0000,  0.0000,  0.0000)
  21 Cu     5.839362    3.143506   11.838524    ( 0.0000,  0.0000,  0.0000)
  22 Cu     4.501203    1.837162   13.704149    ( 0.0000,  0.0000,  0.0000)
  23 Cu     4.508516    4.448476   13.697503    ( 0.0000,  0.0000,  0.0000)
  24 Cu     3.182576    3.146332   15.553115    ( 0.0000,  0.0000,  0.0000)
  25 Cu     5.808555    3.147260   15.549841    ( 0.0000,  0.0000,  0.0000)
  26 Cu     4.501904    1.834499   17.384578    ( 0.0000,  0.0000,  0.0000)
  27 Cu     4.473705    4.454559   17.410819    ( 0.0000,  0.0000,  0.0000)
  28 Cu     3.129437    3.163744   19.289187    ( 0.0000,  0.0000,  0.0000)
  29 Cu     5.747308    3.142929   19.216277    ( 0.0000,  0.0000,  0.0000)
  30 Cu     1.943724    4.451714   10.034544    ( 0.0000,  0.0000,  0.0000)
  31 Cu     1.824341    7.091101    9.956758    ( 0.0000,  0.0000,  0.0000)
  32 Cu     0.579654    5.767442   11.833600    ( 0.0000,  0.0000,  0.0000)
  33 Cu     3.189155    5.760199   11.865880    ( 0.0000,  0.0000,  0.0000)
  34 Cu     1.882474    4.447516   13.700660    ( 0.0000,  0.0000,  0.0000)
  35 Cu     1.880169    7.076079   13.697073    ( 0.0000,  0.0000,  0.0000)
  36 Cu     0.579789    5.763521   15.545905    ( 0.0000,  0.0000,  0.0000)
  37 Cu     3.189992    5.757496   15.546307    ( 0.0000,  0.0000,  0.0000)
  38 Cu     1.851791    4.451257   17.412278    ( 0.0000,  0.0000,  0.0000)
  39 Cu     1.911092    7.070528   17.409326    ( 0.0000,  0.0000,  0.0000)
  40 Cu     0.584536    5.758194   19.280967    ( 0.0000,  0.0000,  0.0000)
  41 Cu     3.189252    5.762957   19.263216    ( 0.0000,  0.0000,  0.0000)
  42 Cu     7.181601    4.472199    9.947621    ( 0.0000,  0.0000,  0.0000)
  43 Cu     7.056700    7.045833    9.956054    ( 0.0000,  0.0000,  0.0000)
  44 Cu     5.806633    5.752135   11.836148    ( 0.0000,  0.0000,  0.0000)
  45 Cu     7.121399    4.459779   13.701276    ( 0.0000,  0.0000,  0.0000)
  46 Cu     7.111123    7.059362   13.700697    ( 0.0000,  0.0000,  0.0000)
  47 Cu     5.805093    5.759789   15.562193    ( 0.0000,  0.0000,  0.0000)
  48 Cu     7.115011    4.447241   17.397965    ( 0.0000,  0.0000,  0.0000)
  49 Cu     7.143535    7.061028   17.414706    ( 0.0000,  0.0000,  0.0000)
  50 Cu     5.810809    5.757775   19.255542    ( 0.0000,  0.0000,  0.0000)
  51 Cu     4.439985    7.067141   10.038807    ( 0.0000,  0.0000,  0.0000)
  52 Cu     4.495031    7.070218   13.701407    ( 0.0000,  0.0000,  0.0000)
  53 Cu     4.506045    7.075429   17.397164    ( 0.0000,  0.0000,  0.0000)
  54 Cl     4.568074    4.459326   21.592169    ( 0.0000,  0.0000,  0.0000)
  55 Cl     3.123412    3.134858    7.659070    ( 0.0000,  0.0000,  0.0000)
  56 Cl     2.387165    1.677347   21.667147    ( 0.0000,  0.0000,  0.0000)
  57 Cl     5.304289    5.916932    7.583802    ( 0.0000,  0.0000,  0.0000)
  58 Cl     2.763623    7.075752   21.807483    ( 0.0000,  0.0000,  0.0000)
  59 Cl     4.927838    0.518584    7.443789    ( 0.0000,  0.0000,  0.0000)
  60 Cl     0.674461    0.528134    7.651758    ( 0.0000,  0.0000,  0.0000)
  61 Cl     7.016800    7.066257   21.599405    ( 0.0000,  0.0000,  0.0000)
  62 Cl     6.568989    1.991720   21.685424    ( 0.0000,  0.0000,  0.0000)
  63 Cl     1.122326    5.602595    7.565194    ( 0.0000,  0.0000,  0.0000)
  64 Cl     6.753317    3.160514    7.405769    ( 0.0000,  0.0000,  0.0000)
  65 Cl     0.938146    4.433729   21.845475    ( 0.0000,  0.0000,  0.0000)

Unit cell:
           periodic     x           y           z      points  spacing
  1. axis:    yes    7.851007    0.000000    0.000000    45     0.1655
  2. axis:    yes    2.617002    7.851007    0.000000    48     0.1636
  3. axis:    yes    0.000000    0.000000   30.683867   175     0.1753

  Lengths:   7.851007   8.275688  30.683867
  Angles:   90.000000  90.000000  71.565053

Effective grid spacing dv^(1/3) = 0.1710

     iter     time        total  log10-change:
                         energy  eigst   dens
iter:   1 05:13:50 -4971.307946
iter:   2 05:14:45 -4789.691166  +1.18  -0.68
iter:   3 05:15:39 -4607.707498  +0.36  -0.88
iter:   4 05:16:35 -4537.085311  -1.07  -1.16
iter:   5 05:17:26 -4526.255494  -1.27  -1.37
iter:   6 05:18:18 -4523.923606  -2.41  -1.39
iter:   7 05:19:09 -4522.269223  -3.12  -1.43
iter:   8 05:20:28 -4520.308148  -2.48  -1.47
iter:   9 05:21:35 -4520.030243  -1.84  -1.56
iter:  10 05:22:44 -4520.266087c -2.22  -1.87
iter:  11 05:23:52 -4519.470423  -3.20  -1.84
iter:  12 05:24:47 -4519.458633  -2.96  -1.91
iter:  13 05:25:46 -4518.354226  -2.94  -1.94
iter:  14 05:26:41 -4518.332741  -3.17  -2.25
iter:  15 05:27:33 -4518.209370c -3.97  -2.34
iter:  16 05:28:30 -4518.173373c -3.72  -2.50
iter:  17 05:29:22 -4518.172149c -4.58  -2.66
iter:  18 05:30:15 -4518.194325c -3.97  -2.76
iter:  19 05:31:06 -4518.185920c -4.44  -2.76
iter:  20 05:32:01 -4518.193220c -4.72  -2.81
iter:  21 05:33:07 -4518.185008c -4.22  -2.69
iter:  22 05:34:03 -4518.157149c -4.58  -2.76
iter:  23 05:34:56 -4518.155135c -5.56  -3.27
iter:  24 05:35:48 -4518.155055c -5.25  -3.44
iter:  25 05:36:41 -4518.154609c -6.15  -3.45
iter:  26 05:37:33 -4518.154320c -6.05  -3.47
iter:  27 05:38:39 -4518.153949c -5.81  -3.54
iter:  28 05:39:42 -4518.154547c -6.08  -3.58
iter:  29 05:40:48 -4518.155487c -5.68  -3.59
iter:  30 05:41:40 -4518.154298c -6.31  -3.73
iter:  31 05:42:32 -4518.154834c -6.82  -3.95
iter:  32 05:43:24 -4518.154807c -6.92  -4.08c
iter:  33 05:44:31 -4518.154826c -6.95  -4.18c
iter:  34 05:45:35 -4518.154598c -6.85  -4.23c
iter:  35 05:46:36 -4518.154610c -7.45c -4.48c

Converged after 35 iterations.

Dipole moment: (-25.669916, -38.123925, 0.000326) |e|*Ang

Energy contributions relative to reference atoms: (reference = -2581817.792169)

Kinetic:       +426.730340
Potential:     -471.640891
External:        +0.000000
XC:            -4471.888521
Entropy (-ST):   -1.138500
Local:           -0.786288
--------------------------
Free energy:   -4518.723861
Extrapolated:  -4518.154610

Showing only first 2 kpts
 Kpt  Band  Eigenvalues  Occupancy
  0   337     -1.37256    1.91811
  0   338     -1.23916    1.72107
  0   339     -1.22368    1.68179
  0   340     -1.17850    1.54171

  1   337     -1.17759    1.53847
  1   338     -1.13363    1.36462
  1   339     -1.11397    1.27651
  1   340     -1.10861    1.25162


Fermi level: -1.05719

No gap

Forces in eV/Ang:
  0 Cu    0.00057   -0.01556   -0.77319
  1 Cu   -0.00084    0.00095   -0.12147
  2 Cu   -0.03291    0.00301   -0.15876
  3 Cu   -0.01420   -0.00843    0.06346
  4 Cu   -0.01310   -0.03229   -0.04442
  5 Cu   -0.00959    0.00249   -0.01878
  6 Cu   -0.04570    0.00708    0.14998
  7 Cu   -0.03176   -0.24709    0.72838
  8 Cu   -0.07052    0.07273    0.94431
  9 Cu    0.03722   -0.00059   -0.16585
 10 Cu    0.01557    0.03022   -0.03524
 11 Cu    0.04516    0.24458    0.70844
 12 Cu    0.06629    0.15255   -0.77678
 13 Cu    0.04462    0.01082   -0.17400
 14 Cu    0.01794    0.02694    0.01296
 15 Cu    0.02344    0.02507   -0.03567
 16 Cu    0.05451   -0.00412    0.14460
 17 Cu   -0.04647    0.16819    0.73939
 18 Cu   -0.05388   -0.14304   -0.81063
 19 Cu   -0.05418    0.14840   -0.74676
 20 Cu    0.00169   -0.00187   -0.12363
 21 Cu   -0.05371   -0.00600   -0.17623
 22 Cu   -0.00390   -0.01506    0.02467
 23 Cu    0.00297    0.00044    0.05526
 24 Cu   -0.00299   -0.00044   -0.05567
 25 Cu   -0.01582   -0.02005   -0.00982
 26 Cu   -0.01022    0.00185    0.15348
 27 Cu   -0.00178    0.00227    0.12279
 28 Cu    0.05450   -0.14861    0.74772
 29 Cu    0.05946   -0.09465    0.93309
 30 Cu   -0.05926    0.09466   -0.93343
 31 Cu    0.04643   -0.16747   -0.73801
 32 Cu   -0.05428    0.00393   -0.14499
 33 Cu    0.01021   -0.00166   -0.15274
 34 Cu    0.01618    0.02000    0.01009
 35 Cu   -0.02380   -0.02459    0.03551
 36 Cu   -0.01749   -0.02710   -0.01286
 37 Cu    0.00348    0.01547   -0.02440
 38 Cu    0.05374    0.00602    0.17674
 39 Cu   -0.04478   -0.01033    0.17405
 40 Cu   -0.06639   -0.15237    0.77717
 41 Cu    0.05349    0.14380    0.80905
 42 Cu   -0.04574   -0.24453   -0.70827
 43 Cu    0.03244    0.24723   -0.72762
 44 Cu    0.04542   -0.00655   -0.15050
 45 Cu   -0.01610   -0.02963    0.03548
 46 Cu    0.01342    0.03210    0.04454
 47 Cu    0.01391    0.00868   -0.06395
 48 Cu   -0.03757    0.00093    0.16657
 49 Cu    0.00084   -0.00099    0.12078
 50 Cu   -0.00043    0.01567    0.77034
 51 Cu    0.07017   -0.07207   -0.94448
 52 Cu    0.00938   -0.00244    0.01907
 53 Cu    0.03306   -0.00286    0.15991
 54 Cl    0.05714    0.06643   -1.55675
 55 Cl   -0.05758   -0.06571    1.55611
 56 Cl    0.14034    0.09604   -1.42020
 57 Cl   -0.14045   -0.09585    1.41919
 58 Cl    0.10117    0.02380   -1.21201
 59 Cl   -0.10172   -0.02431    1.21074
 60 Cl    0.05246    0.07997    1.55008
 61 Cl   -0.05206   -0.08089   -1.55078
 62 Cl   -0.13716   -0.08593   -1.39833
 63 Cl    0.13742    0.08569    1.39694
 64 Cl    0.08889    0.01608    1.18172
 65 Cl   -0.08847   -0.01571   -1.18290

System changes: positions 

Initializing position-dependent things.

Density initialized from wave functions
                                    
                                    
                                    
                                    
                Cl         Cl       
          Cl       Cl               
                                    
          CuCl   Cu    Cl           
                                    
         Cu   CCu   CCu    Cu       
       Cu    CCu   CCu   Cu         
                                    
          CCu    Cu    CCu          
         Cu   CCu   CCu    Cu       
                                    
       Cu    CCu   CCu   Cu         
          CCu    Cu    CCu          
                                    
         Cu   CCu   CCu    Cu       
       Cu    CCu   CCu   Cu         
                                    
           Cu    Cu   ClCu          
                                    
               Cl       Cl          
       Cl         Cl                
                                    
                                    
                                    
                                    

Positions:
   0 Cu     1.880369    1.835369    9.918582    ( 0.0000,  0.0000,  0.0000)
   1 Cu     0.547655    0.533701   11.824224    ( 0.0000,  0.0000,  0.0000)
   2 Cu     3.181772    0.519515   11.837483    ( 0.0000,  0.0000,  0.0000)
   3 Cu     1.884686    1.834079   13.694893    ( 0.0000,  0.0000,  0.0000)
   4 Cu     0.578581    0.532178   15.545379    ( 0.0000,  0.0000,  0.0000)
   5 Cu     3.195180    0.524751   15.547209    ( 0.0000,  0.0000,  0.0000)
   6 Cu     1.879883    1.843207   17.429763    ( 0.0000,  0.0000,  0.0000)
   7 Cu     0.631239    0.523997   19.367980    ( 0.0000,  0.0000,  0.0000)
   8 Cu     3.244167    0.534743   19.306472    ( 0.0000,  0.0000,  0.0000)
   9 Cu     0.579908    3.147397   11.836089    ( 0.0000,  0.0000,  0.0000)
  10 Cu     0.571339    3.137882   15.545713    ( 0.0000,  0.0000,  0.0000)
  11 Cu     0.514094    3.146852   19.374272    ( 0.0000,  0.0000,  0.0000)
  12 Cu     7.113229    1.851602    9.892873    ( 0.0000,  0.0000,  0.0000)
  13 Cu     5.784641    0.525062   11.824176    ( 0.0000,  0.0000,  0.0000)
  14 Cu     7.113048    1.833948   13.705891    ( 0.0000,  0.0000,  0.0000)
  15 Cu     5.813389    0.521032   15.549947    ( 0.0000,  0.0000,  0.0000)
  16 Cu     7.116837    1.826848   17.431780    ( 0.0000,  0.0000,  0.0000)
  17 Cu     5.862181    0.520237   19.368261    ( 0.0000,  0.0000,  0.0000)
  18 Cu     4.496561    1.817299    9.907302    ( 0.0000,  0.0000,  0.0000)
  19 Cu     4.556118    4.445705    9.887443    ( 0.0000,  0.0000,  0.0000)
  20 Cu     3.217546    3.139997   11.827919    ( 0.0000,  0.0000,  0.0000)
  21 Cu     5.833991    3.142906   11.820901    ( 0.0000,  0.0000,  0.0000)
  22 Cu     4.500813    1.835656   13.706616    ( 0.0000,  0.0000,  0.0000)
  23 Cu     4.508813    4.448520   13.703029    ( 0.0000,  0.0000,  0.0000)
  24 Cu     3.182277    3.146288   15.547548    ( 0.0000,  0.0000,  0.0000)
  25 Cu     5.806973    3.145255   15.548859    ( 0.0000,  0.0000,  0.0000)
  26 Cu     4.500882    1.834684   17.399926    ( 0.0000,  0.0000,  0.0000)
  27 Cu     4.473527    4.454786   17.423098    ( 0.0000,  0.0000,  0.0000)
  28 Cu     3.134887    3.148883   19.363959    ( 0.0000,  0.0000,  0.0000)
  29 Cu     5.753254    3.133464   19.309586    ( 0.0000,  0.0000,  0.0000)
  30 Cu     1.937798    4.461180    9.941201    ( 0.0000,  0.0000,  0.0000)
  31 Cu     1.828984    7.074354    9.882957    ( 0.0000,  0.0000,  0.0000)
  32 Cu     0.574226    5.767835   11.819101    ( 0.0000,  0.0000,  0.0000)
  33 Cu     3.190176    5.760033   11.850606    ( 0.0000,  0.0000,  0.0000)
  34 Cu     1.884092    4.449516   13.701669    ( 0.0000,  0.0000,  0.0000)
  35 Cu     1.877789    7.073620   13.700624    ( 0.0000,  0.0000,  0.0000)
  36 Cu     0.578040    5.760811   15.544619    ( 0.0000,  0.0000,  0.0000)
  37 Cu     3.190340    5.759043   15.543867    ( 0.0000,  0.0000,  0.0000)
  38 Cu     1.857165    4.451859   17.429952    ( 0.0000,  0.0000,  0.0000)
  39 Cu     1.906614    7.069495   17.426731    ( 0.0000,  0.0000,  0.0000)
  40 Cu     0.577897    5.742957   19.358684    ( 0.0000,  0.0000,  0.0000)
  41 Cu     3.194601    5.777337   19.344121    ( 0.0000,  0.0000,  0.0000)
  42 Cu     7.177027    4.447746    9.876794    ( 0.0000,  0.0000,  0.0000)
  43 Cu     7.059944    7.070556    9.883292    ( 0.0000,  0.0000,  0.0000)
  44 Cu     5.811175    5.751480   11.821098    ( 0.0000,  0.0000,  0.0000)
  45 Cu     7.119789    4.456816   13.704824    ( 0.0000,  0.0000,  0.0000)
  46 Cu     7.112465    7.062572   13.705151    ( 0.0000,  0.0000,  0.0000)
  47 Cu     5.806484    5.760657   15.555798    ( 0.0000,  0.0000,  0.0000)
  48 Cu     7.111254    4.447334   17.414622    ( 0.0000,  0.0000,  0.0000)
  49 Cu     7.143619    7.060929   17.426784    ( 0.0000,  0.0000,  0.0000)
  50 Cu     5.810766    5.759342   19.332576    ( 0.0000,  0.0000,  0.0000)
  51 Cu     4.447002    7.059934    9.944359    ( 0.0000,  0.0000,  0.0000)
  52 Cu     4.495969    7.069974   13.703314    ( 0.0000,  0.0000,  0.0000)
  53 Cu     4.509351    7.075143   17.413155    ( 0.0000,  0.0000,  0.0000)
  54 Cl     4.573788    4.465969   21.436494    ( 0.0000,  0.0000,  0.0000)
  55 Cl     3.117654    3.128287    7.814681    ( 0.0000,  0.0000,  0.0000)
  56 Cl     2.401199    1.686951   21.525127    ( 0.0000,  0.0000,  0.0000)
  57 Cl     5.290244    5.907347    7.725721    ( 0.0000,  0.0000,  0.0000)
  58 Cl     2.773740    7.078132   21.686282    ( 0.0000,  0.0000,  0.0000)
  59 Cl     4.917666    0.516153    7.564863    ( 0.0000,  0.0000,  0.0000)
  60 Cl     0.679707    0.536131    7.806766    ( 0.0000,  0.0000,  0.0000)
  61 Cl     7.011594    7.058168   21.444327    ( 0.0000,  0.0000,  0.0000)
  62 Cl     6.555273    1.983127   21.545591    ( 0.0000,  0.0000,  0.0000)
  63 Cl     1.136068    5.611164    7.704888    ( 0.0000,  0.0000,  0.0000)
  64 Cl     6.762206    3.162122    7.523941    ( 0.0000,  0.0000,  0.0000)
  65 Cl     0.929299    4.432158   21.727185    ( 0.0000,  0.0000,  0.0000)

Unit cell:
           periodic     x           y           z      points  spacing
  1. axis:    yes    7.851007    0.000000    0.000000    45     0.1655
  2. axis:    yes    2.617002    7.851007    0.000000    48     0.1636
  3. axis:    yes    0.000000    0.000000   30.683867   175     0.1753

  Lengths:   7.851007   8.275688  30.683867
  Angles:   90.000000  90.000000  71.565053

Effective grid spacing dv^(1/3) = 0.1710

     iter     time        total  log10-change:
                         energy  eigst   dens
iter:   1 05:48:21 -4641.098903  -0.71
iter:   2 05:49:14 -4580.660470  -0.25  -0.99
iter:   3 05:50:16 -4530.651991  -1.23  -1.41
iter:   4 05:51:09 -4527.974369  -2.83  -1.78
iter:   5 05:52:03 -4523.165126  -1.86  -1.81
iter:   6 05:53:12 -4522.446531  -2.80  -2.04
iter:   7 05:54:21 -4522.466630  -3.31  -2.14
iter:   8 05:55:19 -4522.056055  -3.28  -2.19
iter:   9 05:56:23 -4522.084775  -2.91  -2.37
iter:  10 05:57:43 -4521.937175c -4.05  -2.47
iter:  11 05:58:35 -4521.929315c -4.02  -2.75
iter:  12 05:59:27 -4521.968590c -4.36  -2.84
iter:  13 06:00:20 -4522.047226c -4.03  -2.68
iter:  14 06:01:18 -4521.955277c -4.74  -2.53
iter:  15 06:02:11 -4521.938075c -5.43  -2.81
iter:  16 06:03:09 -4521.915173c -5.22  -2.88
iter:  17 06:04:14 -4521.921941c -4.67  -3.32
iter:  18 06:05:06 -4521.915195c -5.32  -3.11
iter:  19 06:06:09 -4521.912124c -6.01  -3.42
iter:  20 06:07:15 -4521.914553c -6.38  -3.60
iter:  21 06:08:13 -4521.912398c -5.46  -3.55
iter:  22 06:09:06 -4521.913018c -6.57  -3.95
iter:  23 06:10:10 -4521.912977c -6.48  -4.03c
iter:  24 06:11:22 -4521.913128c -6.51  -4.17c
iter:  25 06:12:16 -4521.913111c -7.65c -4.28c

Converged after 25 iterations.

Dipole moment: (-25.516176, -38.137155, 0.000431) |e|*Ang

Energy contributions relative to reference atoms: (reference = -2581817.792169)

Kinetic:       +426.529468
Potential:     -471.809802
External:        +0.000000
XC:            -4475.215679
Entropy (-ST):   -1.010275
Local:           -0.911961
--------------------------
Free energy:   -4522.418248
Extrapolated:  -4521.913111

Showing only first 2 kpts
 Kpt  Band  Eigenvalues  Occupancy
  0   337     -1.22250    1.88416
  0   338     -1.20220    1.85992
  0   339     -1.15263    1.77992
  0   340     -1.01403    1.33832

  1   337     -1.07762    1.58508
  1   338     -1.03144    1.41299
  1   339     -1.00060    1.27757
  1   340     -0.91407    0.85347


Fermi level: -0.94359

No gap

Forces in eV/Ang:
  0 Cu   -0.00187   -0.00851   -0.64356
  1 Cu    0.02260   -0.02058   -0.26158
  2 Cu   -0.03510   -0.00604   -0.22166
  3 Cu   -0.00524   -0.00339   -0.03861
  4 Cu   -0.00832   -0.01503    0.05334
  5 Cu   -0.00381    0.00251    0.06094
  6 Cu   -0.02198   -0.01942    0.24798
  7 Cu   -0.04641   -0.13625    0.70174
  8 Cu   -0.04339    0.03640    0.78535
  9 Cu    0.04033    0.00870   -0.22283
 10 Cu    0.00652    0.01365    0.06041
 11 Cu    0.05151    0.13846    0.69512
 12 Cu    0.02147    0.07615   -0.74486
 13 Cu    0.03495    0.02162   -0.24463
 14 Cu    0.00479    0.01210   -0.06769
 15 Cu    0.01007    0.01155    0.06024
 16 Cu    0.02718    0.01761    0.25110
 17 Cu   -0.00921    0.09198    0.65863
 18 Cu   -0.01082   -0.06845   -0.75931
 19 Cu   -0.01678    0.08006   -0.65870
 20 Cu   -0.01903    0.01360   -0.26333
 21 Cu   -0.04453   -0.01903   -0.24892
 22 Cu    0.00001   -0.00679   -0.06291
 23 Cu    0.00224   -0.00189   -0.04987
 24 Cu   -0.00222    0.00190    0.04934
 25 Cu   -0.00342   -0.01135    0.06468
 26 Cu   -0.00653   -0.00042    0.23607
 27 Cu    0.01895   -0.01361    0.26330
 28 Cu    0.01664   -0.07961    0.65838
 29 Cu    0.04358   -0.05179    0.78404
 30 Cu   -0.04326    0.05217   -0.78641
 31 Cu    0.00987   -0.09179   -0.65846
 32 Cu   -0.02719   -0.01766   -0.25049
 33 Cu    0.00650    0.00066   -0.23544
 34 Cu    0.00353    0.01140   -0.06532
 35 Cu   -0.01039   -0.01114   -0.06076
 36 Cu   -0.00462   -0.01207    0.06738
 37 Cu   -0.00020    0.00713    0.06254
 38 Cu    0.04448    0.01901    0.25057
 39 Cu   -0.03528   -0.02094    0.24576
 40 Cu   -0.02133   -0.07586    0.74403
 41 Cu    0.01023    0.06870    0.75660
 42 Cu   -0.05166   -0.13831   -0.69515
 43 Cu    0.04648    0.13655   -0.70206
 44 Cu    0.02192    0.01992   -0.24726
 45 Cu   -0.00681   -0.01318   -0.06069
 46 Cu    0.00851    0.01501   -0.05364
 47 Cu    0.00500    0.00360    0.03766
 48 Cu   -0.04044   -0.00855    0.22384
 49 Cu   -0.02252    0.02107    0.26168
 50 Cu    0.00185    0.00861    0.64006
 51 Cu    0.04335   -0.03623   -0.78753
 52 Cu    0.00370   -0.00237   -0.06146
 53 Cu    0.03518    0.00652    0.22308
 54 Cl    0.03569    0.07911   -1.62552
 55 Cl   -0.03705   -0.07823    1.62867
 56 Cl    0.15438    0.09791   -1.52583
 57 Cl   -0.15613   -0.09653    1.52966
 58 Cl    0.14250    0.03259   -1.34656
 59 Cl   -0.14292   -0.03285    1.35069
 60 Cl    0.03226    0.09178    1.62770
 61 Cl   -0.03066   -0.09307   -1.62448
 62 Cl   -0.15466   -0.08829   -1.50920
 63 Cl    0.15645    0.08684    1.51285
 64 Cl    0.12297    0.02477    1.31440
 65 Cl   -0.12286   -0.02451   -1.31041

System changes: positions 

Initializing position-dependent things.

Density initialized from wave functions
                                     
                                     
                                     
                                     
                 Cl        Cl        
                                     
           Cl       Cl               
           Cu    Cu    Clu           
             Cl                      
         Cu    Cu    CCu    Cu       
                                     
       Cu    CCu   CCu    Cu         
           Cu    CCu    Cu           
               Cu    Cu     Cu       
         Cu    Cu     Cu             
             Cu     Cu    Cu         
       Cu     Cu    Cu               
           Cu    CCu    Cu           
         Cu    CCu   CCu    Cu       
                                     
       Cu    CCu    Cu    Cu         
                      Cl             
           Cul    Cu    Cu           
               Cl       Cl           
                                     
        Cl        Cl                 
                                     
                                     
                                     
                                     

Positions:
   0 Cu     1.880443    1.833374    9.819406    ( 0.0000,  0.0000,  0.0000)
   1 Cu     0.547546    0.533823   11.808644    ( 0.0000,  0.0000,  0.0000)
   2 Cu     3.177550    0.519901   11.817118    ( 0.0000,  0.0000,  0.0000)
   3 Cu     1.882865    1.832997   13.703033    ( 0.0000,  0.0000,  0.0000)
   4 Cu     0.576901    0.528037   15.539682    ( 0.0000,  0.0000,  0.0000)
   5 Cu     3.193949    0.525069   15.544800    ( 0.0000,  0.0000,  0.0000)
   6 Cu     1.874022    1.844116   17.449001    ( 0.0000,  0.0000,  0.0000)
   7 Cu     0.627165    0.492302   19.461408    ( 0.0000,  0.0000,  0.0000)
   8 Cu     3.235122    0.544073   19.427599    ( 0.0000,  0.0000,  0.0000)
   9 Cu     0.584682    3.147322   11.814816    ( 0.0000,  0.0000,  0.0000)
  10 Cu     0.573336    3.141759   15.541193    ( 0.0000,  0.0000,  0.0000)
  11 Cu     0.519887    3.178225   19.465142    ( 0.0000,  0.0000,  0.0000)
  12 Cu     7.121733    1.871169    9.793236    ( 0.0000,  0.0000,  0.0000)
  13 Cu     5.790364    0.526451   11.801858    ( 0.0000,  0.0000,  0.0000)
  14 Cu     7.115350    1.837403   13.707553    ( 0.0000,  0.0000,  0.0000)
  15 Cu     5.816395    0.524247   15.545373    ( 0.0000,  0.0000,  0.0000)
  16 Cu     7.123830    1.826318   17.450327    ( 0.0000,  0.0000,  0.0000)
  17 Cu     5.856219    0.541811   19.463102    ( 0.0000,  0.0000,  0.0000)
  18 Cu     4.489651    1.798951    9.803324    ( 0.0000,  0.0000,  0.0000)
  19 Cu     4.549169    4.464739    9.791657    ( 0.0000,  0.0000,  0.0000)
  20 Cu     3.217762    3.139757   11.812062    ( 0.0000,  0.0000,  0.0000)
  21 Cu     5.827101    3.142136   11.798297    ( 0.0000,  0.0000,  0.0000)
  22 Cu     4.500312    1.833725   13.709780    ( 0.0000,  0.0000,  0.0000)
  23 Cu     4.509195    4.448577   13.710117    ( 0.0000,  0.0000,  0.0000)
  24 Cu     3.181895    3.146231   15.540408    ( 0.0000,  0.0000,  0.0000)
  25 Cu     5.804944    3.142683   15.547600    ( 0.0000,  0.0000,  0.0000)
  26 Cu     4.499571    1.834922   17.419613    ( 0.0000,  0.0000,  0.0000)
  27 Cu     4.473299    4.455077   17.438849    ( 0.0000,  0.0000,  0.0000)
  28 Cu     3.141877    3.129820   19.459868    ( 0.0000,  0.0000,  0.0000)
  29 Cu     5.760880    3.121322   19.429272    ( 0.0000,  0.0000,  0.0000)
  30 Cu     1.930197    4.473323    9.821470    ( 0.0000,  0.0000,  0.0000)
  31 Cu     1.834940    7.052873    9.788294    ( 0.0000,  0.0000,  0.0000)
  32 Cu     0.567264    5.768340   11.800504    ( 0.0000,  0.0000,  0.0000)
  33 Cu     3.191485    5.759821   11.831013    ( 0.0000,  0.0000,  0.0000)
  34 Cu     1.886167    4.452081   13.702964    ( 0.0000,  0.0000,  0.0000)
  35 Cu     1.874735    7.070466   13.705178    ( 0.0000,  0.0000,  0.0000)
  36 Cu     0.575796    5.757334   15.542969    ( 0.0000,  0.0000,  0.0000)
  37 Cu     3.190787    5.761027   15.540737    ( 0.0000,  0.0000,  0.0000)
  38 Cu     1.864057    4.452631   17.452623    ( 0.0000,  0.0000,  0.0000)
  39 Cu     1.900870    7.068170   17.449057    ( 0.0000,  0.0000,  0.0000)
  40 Cu     0.569380    5.723412   19.458371    ( 0.0000,  0.0000,  0.0000)
  41 Cu     3.201462    5.795782   19.447898    ( 0.0000,  0.0000,  0.0000)
  42 Cu     7.171161    4.416380    9.785946    ( 0.0000,  0.0000,  0.0000)
  43 Cu     7.064105    7.102267    9.789961    ( 0.0000,  0.0000,  0.0000)
  44 Cu     5.817001    5.750640   11.801793    ( 0.0000,  0.0000,  0.0000)
  45 Cu     7.117725    4.453015   13.709376    ( 0.0000,  0.0000,  0.0000)
  46 Cu     7.114186    7.066689   13.710863    ( 0.0000,  0.0000,  0.0000)
  47 Cu     5.808269    5.761772   15.547595    ( 0.0000,  0.0000,  0.0000)
  48 Cu     7.106436    4.447453   17.435988    ( 0.0000,  0.0000,  0.0000)
  49 Cu     7.143727    7.060801   17.442277    ( 0.0000,  0.0000,  0.0000)
  50 Cu     5.810711    5.761351   19.431386    ( 0.0000,  0.0000,  0.0000)
  51 Cu     4.456002    7.050689    9.823212    ( 0.0000,  0.0000,  0.0000)
  52 Cu     4.497172    7.069661   13.705760    ( 0.0000,  0.0000,  0.0000)
  53 Cu     4.513593    7.074776   17.433666    ( 0.0000,  0.0000,  0.0000)
  54 Cl     4.581118    4.474490   21.236810    ( 0.0000,  0.0000,  0.0000)
  55 Cl     3.110269    3.119858    8.014283    ( 0.0000,  0.0000,  0.0000)
  56 Cl     2.419199    1.699269   21.342959    ( 0.0000,  0.0000,  0.0000)
  57 Cl     5.272229    5.895053    7.907759    ( 0.0000,  0.0000,  0.0000)
  58 Cl     2.786718    7.081185   21.530819    ( 0.0000,  0.0000,  0.0000)
  59 Cl     4.904618    0.513035    7.720165    ( 0.0000,  0.0000,  0.0000)
  60 Cl     0.686436    0.546388    8.005594    ( 0.0000,  0.0000,  0.0000)
  61 Cl     7.004915    7.047792   21.245408    ( 0.0000,  0.0000,  0.0000)
  62 Cl     6.537680    1.972104   21.366227    ( 0.0000,  0.0000,  0.0000)
  63 Cl     1.153694    5.622155    7.884073    ( 0.0000,  0.0000,  0.0000)
  64 Cl     6.773608    3.164184    7.675519    ( 0.0000,  0.0000,  0.0000)
  65 Cl     0.917952    4.430143   21.575456    ( 0.0000,  0.0000,  0.0000)

Unit cell:
           periodic     x           y           z      points  spacing
  1. axis:    yes    7.851007    0.000000    0.000000    45     0.1655
  2. axis:    yes    2.617002    7.851007    0.000000    48     0.1636
  3. axis:    yes    0.000000    0.000000   30.683867   175     0.1753

  Lengths:   7.851007   8.275688  30.683867
  Angles:   90.000000  90.000000  71.565053

Effective grid spacing dv^(1/3) = 0.1710

     iter     time        total  log10-change:
                         energy  eigst   dens
iter:   1 06:13:57 -4715.435554  -0.38
iter:   2 06:14:53 -4590.241397  +0.01  -0.91
iter:   3 06:15:49 -4532.275451  -1.01  -1.36
iter:   4 06:17:09 -4530.354190  -2.72  -1.84
iter:   5 06:18:07 -4529.231544  -1.91  -1.87
iter:   6 06:19:01 -4527.198809  -1.94  -1.96
iter:   7 06:20:24 -4526.489393  -3.00  -2.22
iter:   8 06:21:31 -4526.367108  -3.12  -2.35
iter:   9 06:22:36 -4526.224514c -3.45  -2.41
iter:  10 06:23:42 -4526.458053c -3.42  -2.54
iter:  11 06:24:35 -4526.293298c -3.39  -2.41
iter:  12 06:25:47 -4526.258046c -4.91  -2.64
iter:  13 06:26:45 -4526.192766c -3.62  -2.68
iter:  14 06:27:37 -4526.252211c -3.83  -2.75
iter:  15 06:28:30 -4526.219302c -3.95  -2.78
iter:  16 06:29:23 -4526.188347c -4.42  -2.98
iter:  17 06:30:25 -4526.184352c -4.95  -3.30
iter:  18 06:31:16 -4526.184225c -4.87  -3.41
iter:  19 06:32:08 -4526.183803c -5.48  -3.50
iter:  20 06:33:00 -4526.182891c -5.87  -3.49
iter:  21 06:33:58 -4526.182053c -6.17  -3.65
iter:  22 06:34:50 -4526.184097c -5.70  -3.70
iter:  23 06:35:42 -4526.182642c -5.80  -3.73
iter:  24 06:36:34 -4526.182918c -5.89  -4.05c
iter:  25 06:37:41 -4526.182745c -6.64  -4.21c
iter:  26 06:38:36 -4526.182674c -7.18  -4.27c
iter:  27 06:39:38 -4526.182261c -7.07  -4.33c
iter:  28 06:40:31 -4526.182592c -7.06  -4.53c
iter:  29 06:41:35 -4526.182600c -8.55c -4.76c

Converged after 29 iterations.

Dipole moment: (-25.287436, -38.083344, 0.000835) |e|*Ang

Energy contributions relative to reference atoms: (reference = -2581817.792169)

Kinetic:       +454.271981
Potential:     -494.626757
External:        +0.000000
XC:            -4484.422793
Entropy (-ST):   -0.748187
Local:           -1.030937
--------------------------
Free energy:   -4526.556694
Extrapolated:  -4526.182600

Showing only first 2 kpts
 Kpt  Band  Eigenvalues  Occupancy
  0   337     -1.01747    1.91077
  0   338     -0.98695    1.88082
  0   339     -0.81974    1.49551
  0   340     -0.72656    1.07730

  1   337     -0.91513    1.76998
  1   338     -0.74753    1.18029
  1   339     -0.69909    0.94015
  1   340     -0.60117    0.49983


Fermi level: -0.71107

No gap

Forces in eV/Ang:
  0 Cu   -0.00202    0.00613   -0.16253
  1 Cu    0.03773   -0.03808   -0.37293
  2 Cu   -0.02560   -0.01222   -0.27901
  3 Cu    0.00709    0.00349   -0.15940
  4 Cu   -0.00135    0.00709    0.16905
  5 Cu    0.00315    0.00401    0.15377
  6 Cu    0.00561   -0.04518    0.32837
  7 Cu   -0.04664    0.05508    0.40269
  8 Cu    0.01272   -0.09291    0.11903
  9 Cu    0.03289    0.01705   -0.27360
 10 Cu   -0.00621   -0.00815    0.17268
 11 Cu    0.04191   -0.03252    0.43739
 12 Cu   -0.09374   -0.03944   -0.43534
 13 Cu    0.01667    0.02933   -0.30581
 14 Cu   -0.01503   -0.00752   -0.16089
 15 Cu   -0.00784   -0.00636    0.17325
 16 Cu   -0.00473    0.04006    0.34140
 17 Cu    0.03177   -0.07252    0.25475
 18 Cu    0.09965    0.05859   -0.39749
 19 Cu    0.02756   -0.07478   -0.23641
 20 Cu   -0.03509    0.02241   -0.37247
 21 Cu   -0.02497   -0.02810   -0.31183
 22 Cu    0.00735    0.00445   -0.16482
 23 Cu    0.00163   -0.00298   -0.17397
 24 Cu   -0.00158    0.00308    0.17380
 25 Cu    0.01429    0.00170    0.15162
 26 Cu   -0.00239   -0.00386    0.30781
 27 Cu    0.03506   -0.02272    0.37257
 28 Cu   -0.02716    0.07597    0.23643
 29 Cu    0.01196    0.08932    0.13809
 30 Cu   -0.01209   -0.08841   -0.13912
 31 Cu   -0.03161    0.07189   -0.25556
 32 Cu    0.00468   -0.03979   -0.34176
 33 Cu    0.00230    0.00414   -0.30743
 34 Cu   -0.01457   -0.00150   -0.15215
 35 Cu    0.00775    0.00659   -0.17367
 36 Cu    0.01478    0.00781    0.16073
 37 Cu   -0.00725   -0.00427    0.16465
 38 Cu    0.02476    0.02817    0.31162
 39 Cu   -0.01715   -0.02860    0.30567
 40 Cu    0.09360    0.03955    0.43513
 41 Cu   -0.09961   -0.05909    0.39781
 42 Cu   -0.04177    0.03278   -0.43789
 43 Cu    0.04642   -0.05502   -0.40303
 44 Cu   -0.00561    0.04546   -0.32845
 45 Cu    0.00627    0.00832   -0.17301
 46 Cu    0.00131   -0.00678   -0.16929
 47 Cu   -0.00721   -0.00337    0.15866
 48 Cu   -0.03268   -0.01710    0.27390
 49 Cu   -0.03757    0.03896    0.37297
 50 Cu    0.00159   -0.00603    0.16262
 51 Cu   -0.01186    0.09205   -0.12058
 52 Cu   -0.00321   -0.00375   -0.15417
 53 Cu    0.02555    0.01301    0.27938
 54 Cl   -0.01351    0.05598   -1.12005
 55 Cl    0.01366   -0.05588    1.12074
 56 Cl    0.05387    0.10622   -0.99593
 57 Cl   -0.05428   -0.10647    0.99869
 58 Cl    0.16758    0.03116   -1.13620
 59 Cl   -0.16743   -0.03076    1.13828
 60 Cl   -0.01966    0.05959    1.13070
 61 Cl    0.01939   -0.05949   -1.12972
 62 Cl   -0.07089   -0.10218   -1.01337
 63 Cl    0.07166    0.10261    1.01587
 64 Cl    0.14799    0.02810    1.16081
 65 Cl   -0.14842   -0.02858   -1.15900

System changes: positions 

Initializing position-dependent things.

Density initialized from wave functions
                                     
                                     
                                     
                                     
                 Cl        Cl        
                                     
           Cl       Cl               
           Cu    Cu     Cu           
             Cl        Cl            
         Cu    Cu    CCu    Cu       
              Cu    Cu               
       Cu    Cu    Cu     Cu         
           Cu    CCu    Cu           
                            Cu       
         Cu    Cu    CCu             
             CCu    Cu    Cu         
       Cu           Cu               
           Cu    CCu    Cu           
         Cu     Cu    Cu    Cu       
               Cu    Cu              
       Cu    CCu    Cu    Cu         
                      Cl             
           Cul    Cu    Cu           
               Cl       Cl           
                                     
        Cl        Cl                 
                                     
                                     
                                     
                                     

Positions:
   0 Cu     1.880517    1.831379    9.720230    ( 0.0000,  0.0000,  0.0000)
   1 Cu     0.547438    0.533944   11.793063    ( 0.0000,  0.0000,  0.0000)
   2 Cu     3.173329    0.520288   11.796753    ( 0.0000,  0.0000,  0.0000)
   3 Cu     1.881043    1.831915   13.711172    ( 0.0000,  0.0000,  0.0000)
   4 Cu     0.575220    0.523895   15.533985    ( 0.0000,  0.0000,  0.0000)
   5 Cu     3.192718    0.525388   15.542391    ( 0.0000,  0.0000,  0.0000)
   6 Cu     1.868160    1.845024   17.468239    ( 0.0000,  0.0000,  0.0000)
   7 Cu     0.623092    0.460608   19.554836    ( 0.0000,  0.0000,  0.0000)
   8 Cu     3.226076    0.553402   19.548726    ( 0.0000,  0.0000,  0.0000)
   9 Cu     0.589457    3.147247   11.793543    ( 0.0000,  0.0000,  0.0000)
  10 Cu     0.575332    3.145635   15.536673    ( 0.0000,  0.0000,  0.0000)
  11 Cu     0.525680    3.209597   19.556013    ( 0.0000,  0.0000,  0.0000)
  12 Cu     7.130236    1.890736    9.693599    ( 0.0000,  0.0000,  0.0000)
  13 Cu     5.796087    0.527839   11.779540    ( 0.0000,  0.0000,  0.0000)
  14 Cu     7.117651    1.840859   13.709214    ( 0.0000,  0.0000,  0.0000)
  15 Cu     5.819401    0.527462   15.540798    ( 0.0000,  0.0000,  0.0000)
  16 Cu     7.130823    1.825789   17.468875    ( 0.0000,  0.0000,  0.0000)
  17 Cu     5.850258    0.563385   19.557943    ( 0.0000,  0.0000,  0.0000)
  18 Cu     4.482740    1.780603    9.699345    ( 0.0000,  0.0000,  0.0000)
  19 Cu     4.542220    4.483774    9.695870    ( 0.0000,  0.0000,  0.0000)
  20 Cu     3.217978    3.139517   11.796204    ( 0.0000,  0.0000,  0.0000)
  21 Cu     5.820211    3.141366   11.775693    ( 0.0000,  0.0000,  0.0000)
  22 Cu     4.499812    1.831794   13.712945    ( 0.0000,  0.0000,  0.0000)
  23 Cu     4.509577    4.448634   13.717205    ( 0.0000,  0.0000,  0.0000)
  24 Cu     3.181512    3.146174   15.533268    ( 0.0000,  0.0000,  0.0000)
  25 Cu     5.802915    3.140111   15.546341    ( 0.0000,  0.0000,  0.0000)
  26 Cu     4.498260    1.835160   17.439300    ( 0.0000,  0.0000,  0.0000)
  27 Cu     4.473071    4.455368   17.454600    ( 0.0000,  0.0000,  0.0000)
  28 Cu     3.148868    3.110757   19.555777    ( 0.0000,  0.0000,  0.0000)
  29 Cu     5.768506    3.109181   19.548958    ( 0.0000,  0.0000,  0.0000)
  30 Cu     1.922596    4.485465    9.701739    ( 0.0000,  0.0000,  0.0000)
  31 Cu     1.840895    7.031392    9.693630    ( 0.0000,  0.0000,  0.0000)
  32 Cu     0.560301    5.768844   11.781907    ( 0.0000,  0.0000,  0.0000)
  33 Cu     3.192795    5.759608   11.811421    ( 0.0000,  0.0000,  0.0000)
  34 Cu     1.888242    4.454646   13.704259    ( 0.0000,  0.0000,  0.0000)
  35 Cu     1.871682    7.067312   13.709733    ( 0.0000,  0.0000,  0.0000)
  36 Cu     0.573552    5.753858   15.541319    ( 0.0000,  0.0000,  0.0000)
  37 Cu     3.191233    5.763011   15.537607    ( 0.0000,  0.0000,  0.0000)
  38 Cu     1.870950    4.453404   17.475294    ( 0.0000,  0.0000,  0.0000)
  39 Cu     1.895126    7.066845   17.471382    ( 0.0000,  0.0000,  0.0000)
  40 Cu     0.560864    5.703868   19.558057    ( 0.0000,  0.0000,  0.0000)
  41 Cu     3.208323    5.814227   19.551675    ( 0.0000,  0.0000,  0.0000)
  42 Cu     7.165294    4.385014    9.695097    ( 0.0000,  0.0000,  0.0000)
  43 Cu     7.068266    7.133978    9.696630    ( 0.0000,  0.0000,  0.0000)
  44 Cu     5.822828    5.749800   11.782488    ( 0.0000,  0.0000,  0.0000)
  45 Cu     7.115660    4.449213   13.713927    ( 0.0000,  0.0000,  0.0000)
  46 Cu     7.115907    7.070806   13.716576    ( 0.0000,  0.0000,  0.0000)
  47 Cu     5.810054    5.762886   15.539392    ( 0.0000,  0.0000,  0.0000)
  48 Cu     7.101617    4.447572   17.457354    ( 0.0000,  0.0000,  0.0000)
  49 Cu     7.143836    7.060674   17.457769    ( 0.0000,  0.0000,  0.0000)
  50 Cu     5.810656    5.763361   19.530197    ( 0.0000,  0.0000,  0.0000)
  51 Cu     4.465003    7.041445    9.702064    ( 0.0000,  0.0000,  0.0000)
  52 Cu     4.498376    7.069348   13.708207    ( 0.0000,  0.0000,  0.0000)
  53 Cu     4.517834    7.074409   17.454177    ( 0.0000,  0.0000,  0.0000)
  54 Cl     4.588448    4.483010   21.037126    ( 0.0000,  0.0000,  0.0000)
  55 Cl     3.102883    3.111429    8.213885    ( 0.0000,  0.0000,  0.0000)
  56 Cl     2.437200    1.711588   21.160790    ( 0.0000,  0.0000,  0.0000)
  57 Cl     5.254213    5.882758    8.089797    ( 0.0000,  0.0000,  0.0000)
  58 Cl     2.799695    7.084237   21.375355    ( 0.0000,  0.0000,  0.0000)
  59 Cl     4.891571    0.509917    7.875466    ( 0.0000,  0.0000,  0.0000)
  60 Cl     0.693165    0.556645    8.204422    ( 0.0000,  0.0000,  0.0000)
  61 Cl     6.998237    7.037417   21.046490    ( 0.0000,  0.0000,  0.0000)
  62 Cl     6.520087    1.961081   21.186864    ( 0.0000,  0.0000,  0.0000)
  63 Cl     1.171321    5.633146    8.063257    ( 0.0000,  0.0000,  0.0000)
  64 Cl     6.785010    3.166246    7.827098    ( 0.0000,  0.0000,  0.0000)
  65 Cl     0.906604    4.428128   21.423726    ( 0.0000,  0.0000,  0.0000)

Unit cell:
           periodic     x           y           z      points  spacing
  1. axis:    yes    7.851007    0.000000    0.000000    45     0.1655
  2. axis:    yes    2.617002    7.851007    0.000000    48     0.1636
  3. axis:    yes    0.000000    0.000000   30.683867   175     0.1753

  Lengths:   7.851007   8.275688  30.683867
  Angles:   90.000000  90.000000  71.565053

Effective grid spacing dv^(1/3) = 0.1710

     iter     time        total  log10-change:
                         energy  eigst   dens
iter:   1 06:42:59 -4713.749693  -0.33
iter:   2 06:43:51 -4569.836794  -0.11  -0.94
iter:   3 06:44:49 -4528.929927  -1.22  -1.47
iter:   4 06:45:42 -4528.136269  -2.79  -1.93
iter:   5 06:46:54 -4529.154229  -1.97  -1.97
iter:   6 06:47:46 -4527.327727  -2.18  -2.02
iter:   7 06:48:40 -4526.486358  -2.74  -2.33
iter:   8 06:49:33 -4526.391334  -3.03  -2.53
iter:   9 06:50:39 -4526.390777c -3.48  -2.65
iter:  10 06:51:35 -4526.361207c -4.14  -2.76
iter:  11 06:52:28 -4526.374883c -3.55  -2.82
iter:  12 06:53:24 -4526.362140c -4.63  -2.97
iter:  13 06:54:18 -4526.348318c -4.17  -3.14
iter:  14 06:55:12 -4526.344929c -4.83  -3.26
iter:  15 06:56:05 -4526.345090c -4.99  -3.45
iter:  16 06:56:58 -4526.344149c -5.59  -3.61
iter:  17 06:57:50 -4526.343882c -5.55  -3.67
iter:  18 06:58:42 -4526.343804c -5.64  -3.83
iter:  19 06:59:36 -4526.343650c -6.27  -4.02c
iter:  20 07:00:34 -4526.343616c -6.26  -4.15c
iter:  21 07:01:28 -4526.343546c -6.58  -4.21c
iter:  22 07:02:33 -4526.343571c -7.44c -4.45c

Converged after 22 iterations.

Dipole moment: (-24.904616, -37.874494, 0.000133) |e|*Ang

Energy contributions relative to reference atoms: (reference = -2581817.792169)

Kinetic:       +539.438324
Potential:     -563.246764
External:        +0.000000
XC:            -4501.245200
Entropy (-ST):   -0.582554
Local:           -0.998654
--------------------------
Free energy:   -4526.634848
Extrapolated:  -4526.343571

Showing only first 2 kpts
 Kpt  Band  Eigenvalues  Occupancy
  0   337     -0.50198    1.89648
  0   338     -0.44260    1.82008
  0   339     -0.27140    1.29232
  0   340     -0.23877    1.13707

  1   337     -0.36601    1.64934
  1   338     -0.19886    0.93847
  1   339     -0.15508    0.72663
  1   340     -0.11530    0.55422


Fermi level: -0.21118

No gap

Forces in eV/Ang:
  0 Cu    0.01321    0.04126    0.98605
  1 Cu    0.04003   -0.04609   -0.38514
  2 Cu   -0.01137   -0.01467   -0.28685
  3 Cu    0.01832    0.00910   -0.27324
  4 Cu    0.00530    0.02454    0.27944
  5 Cu    0.00808    0.00574    0.25054
  6 Cu    0.02456   -0.05980    0.34291
  7 Cu    0.08033    0.59854   -0.77654
  8 Cu    0.30234   -0.67485   -1.84254
  9 Cu    0.01882    0.02062   -0.27968
 10 Cu   -0.01747   -0.02689    0.28092
 11 Cu   -0.06665   -0.50566   -0.64425
 12 Cu   -0.24505   -0.36676    0.69694
 13 Cu   -0.00077    0.03079   -0.32181
 14 Cu   -0.03302   -0.02514   -0.24545
 15 Cu   -0.02313   -0.02017    0.28535
 16 Cu   -0.02769    0.05263    0.36569
 17 Cu   -0.06059   -0.55940   -0.90871
 18 Cu    0.23324    0.43839    0.85373
 19 Cu   -0.06227   -0.54478    0.93068
 20 Cu   -0.04100    0.02514   -0.38090
 21 Cu   -0.00306   -0.03067   -0.33014
 22 Cu    0.01407    0.01487   -0.25864
 23 Cu    0.00180   -0.00265   -0.28985
 24 Cu   -0.00151    0.00283    0.29606
 25 Cu    0.03066    0.01344    0.24255
 26 Cu    0.00135   -0.00631    0.31448
 27 Cu    0.04122   -0.02540    0.38104
 28 Cu    0.06356    0.54978   -0.93883
 29 Cu   -0.24009    0.69511   -1.81843
 30 Cu    0.23887   -0.69235    1.81329
 31 Cu    0.05841    0.55339    0.89792
 32 Cu    0.02722   -0.05260   -0.36563
 33 Cu   -0.00157    0.00668   -0.31162
 34 Cu   -0.03093   -0.01321   -0.23679
 35 Cu    0.02266    0.02043   -0.27951
 36 Cu    0.03310    0.02527    0.25144
 37 Cu   -0.01416   -0.01461    0.26486
 38 Cu    0.00249    0.03063    0.33059
 39 Cu    0.00054   -0.02984    0.32191
 40 Cu    0.24537    0.36852   -0.70468
 41 Cu   -0.23242   -0.44214   -0.86021
 42 Cu    0.06669    0.50393    0.63771
 43 Cu   -0.08049   -0.59566    0.76984
 44 Cu   -0.02395    0.06038   -0.34273
 45 Cu    0.01726    0.02710   -0.27486
 46 Cu   -0.00492   -0.02425   -0.27353
 47 Cu   -0.01859   -0.00886    0.27895
 48 Cu   -0.01842   -0.02065    0.28078
 49 Cu   -0.03993    0.04688    0.38525
 50 Cu   -0.01466   -0.04160   -0.98750
 51 Cu   -0.29875    0.66952    1.83522
 52 Cu   -0.00813   -0.00547   -0.24451
 53 Cu    0.01109    0.01550    0.28826
 54 Cl   -0.24054    0.01123    0.48574
 55 Cl    0.24145   -0.01065   -0.49090
 56 Cl   -0.67359    0.44789    1.36927
 57 Cl    0.67046   -0.44886   -1.36371
 58 Cl   -0.09169    0.02455    0.62213
 59 Cl    0.09066   -0.02324   -0.61808
 60 Cl   -0.29861    0.00599   -0.49014
 61 Cl    0.29646   -0.00395    0.48599
 62 Cl    0.61671   -0.44948    1.34527
 63 Cl   -0.61336    0.45332   -1.34077
 64 Cl   -0.03979    0.01926   -0.39392
 65 Cl    0.04048   -0.02109    0.39703

System changes: positions 

Initializing position-dependent things.

Density initialized from wave functions
                                     
                                     
                                     
                                     
                 Cl        Cl        
                                     
           Cl       Cl               
           Cu    Cu    Clu           
             Cl                      
         Cu    Cu    CCu    Cu       
                                     
       Cu    CCu   CCu    Cu         
           Cu    CCu    Cu           
               Cu    Cu     Cu       
         Cu    Cu     Cu             
             Cu     Cu    Cu         
       Cu     Cu    Cu               
           Cu    CCu    Cu           
         Cu    CCu   CCu    Cu       
                                     
       Cu    CCu    Cu    Cu         
                      Cl             
           Cul    Cu    Cu           
               Cl       Cl           
                                     
        Cl        Cl                 
                                     
                                     
                                     
                                     

Positions:
   0 Cu     1.880475    1.832507    9.776284    ( 0.0000,  0.0000,  0.0000)
   1 Cu     0.547499    0.533876   11.801869    ( 0.0000,  0.0000,  0.0000)
   2 Cu     3.175715    0.520069   11.808263    ( 0.0000,  0.0000,  0.0000)
   3 Cu     1.882073    1.832527   13.706572    ( 0.0000,  0.0000,  0.0000)
   4 Cu     0.576170    0.526236   15.537205    ( 0.0000,  0.0000,  0.0000)
   5 Cu     3.193414    0.525208   15.543752    ( 0.0000,  0.0000,  0.0000)
   6 Cu     1.871473    1.844510   17.457366    ( 0.0000,  0.0000,  0.0000)
   7 Cu     0.625394    0.478521   19.502031    ( 0.0000,  0.0000,  0.0000)
   8 Cu     3.231189    0.548129   19.480265    ( 0.0000,  0.0000,  0.0000)
   9 Cu     0.586758    3.147289   11.805567    ( 0.0000,  0.0000,  0.0000)
  10 Cu     0.574204    3.143444   15.539228    ( 0.0000,  0.0000,  0.0000)
  11 Cu     0.522406    3.191866   19.504653    ( 0.0000,  0.0000,  0.0000)
  12 Cu     7.125430    1.879677    9.749914    ( 0.0000,  0.0000,  0.0000)
  13 Cu     5.792852    0.527054   11.792154    ( 0.0000,  0.0000,  0.0000)
  14 Cu     7.116351    1.838906   13.708275    ( 0.0000,  0.0000,  0.0000)
  15 Cu     5.817702    0.525645   15.543383    ( 0.0000,  0.0000,  0.0000)
  16 Cu     7.126870    1.826088   17.458392    ( 0.0000,  0.0000,  0.0000)
  17 Cu     5.853627    0.551191   19.504339    ( 0.0000,  0.0000,  0.0000)
  18 Cu     4.486646    1.790973    9.758113    ( 0.0000,  0.0000,  0.0000)
  19 Cu     4.546147    4.473016    9.750008    ( 0.0000,  0.0000,  0.0000)
  20 Cu     3.217856    3.139652   11.805167    ( 0.0000,  0.0000,  0.0000)
  21 Cu     5.824105    3.141801   11.788469    ( 0.0000,  0.0000,  0.0000)
  22 Cu     4.500095    1.832885   13.711156    ( 0.0000,  0.0000,  0.0000)
  23 Cu     4.509361    4.448602   13.713199    ( 0.0000,  0.0000,  0.0000)
  24 Cu     3.181728    3.146207   15.537304    ( 0.0000,  0.0000,  0.0000)
  25 Cu     5.804062    3.141564   15.547053    ( 0.0000,  0.0000,  0.0000)
  26 Cu     4.499001    1.835025   17.428173    ( 0.0000,  0.0000,  0.0000)
  27 Cu     4.473200    4.455204   17.445698    ( 0.0000,  0.0000,  0.0000)
  28 Cu     3.144917    3.121531   19.501569    ( 0.0000,  0.0000,  0.0000)
  29 Cu     5.764196    3.116043   19.481312    ( 0.0000,  0.0000,  0.0000)
  30 Cu     1.926892    4.478602    9.769410    ( 0.0000,  0.0000,  0.0000)
  31 Cu     1.837529    7.043533    9.747134    ( 0.0000,  0.0000,  0.0000)
  32 Cu     0.564236    5.768559   11.792418    ( 0.0000,  0.0000,  0.0000)
  33 Cu     3.192055    5.759728   11.822495    ( 0.0000,  0.0000,  0.0000)
  34 Cu     1.887069    4.453197   13.703527    ( 0.0000,  0.0000,  0.0000)
  35 Cu     1.873407    7.069095   13.707159    ( 0.0000,  0.0000,  0.0000)
  36 Cu     0.574820    5.755823   15.542252    ( 0.0000,  0.0000,  0.0000)
  37 Cu     3.190981    5.761890   15.539376    ( 0.0000,  0.0000,  0.0000)
  38 Cu     1.867054    4.452967   17.462481    ( 0.0000,  0.0000,  0.0000)
  39 Cu     1.898372    7.067594   17.458764    ( 0.0000,  0.0000,  0.0000)
  40 Cu     0.565677    5.714914   19.501715    ( 0.0000,  0.0000,  0.0000)
  41 Cu     3.204445    5.803802   19.493021    ( 0.0000,  0.0000,  0.0000)
  42 Cu     7.168610    4.402742    9.746444    ( 0.0000,  0.0000,  0.0000)
  43 Cu     7.065914    7.116055    9.749380    ( 0.0000,  0.0000,  0.0000)
  44 Cu     5.819535    5.750275   11.793399    ( 0.0000,  0.0000,  0.0000)
  45 Cu     7.116827    4.451362   13.711355    ( 0.0000,  0.0000,  0.0000)
  46 Cu     7.114934    7.068479   13.713347    ( 0.0000,  0.0000,  0.0000)
  47 Cu     5.809045    5.762256   15.544028    ( 0.0000,  0.0000,  0.0000)
  48 Cu     7.104341    4.447505   17.445278    ( 0.0000,  0.0000,  0.0000)
  49 Cu     7.143774    7.060746   17.449013    ( 0.0000,  0.0000,  0.0000)
  50 Cu     5.810687    5.762225   19.474350    ( 0.0000,  0.0000,  0.0000)
  51 Cu     4.459916    7.046670    9.770536    ( 0.0000,  0.0000,  0.0000)
  52 Cu     4.497696    7.069525   13.706824    ( 0.0000,  0.0000,  0.0000)
  53 Cu     4.515437    7.074617   17.442584    ( 0.0000,  0.0000,  0.0000)
  54 Cl     4.584305    4.478195   21.149986    ( 0.0000,  0.0000,  0.0000)
  55 Cl     3.107057    3.116193    8.101071    ( 0.0000,  0.0000,  0.0000)
  56 Cl     2.427026    1.704626   21.263751    ( 0.0000,  0.0000,  0.0000)
  57 Cl     5.264395    5.889707    7.986910    ( 0.0000,  0.0000,  0.0000)
  58 Cl     2.792360    7.082512   21.463223    ( 0.0000,  0.0000,  0.0000)
  59 Cl     4.898945    0.511679    7.787690    ( 0.0000,  0.0000,  0.0000)
  60 Cl     0.689362    0.550848    8.092046    ( 0.0000,  0.0000,  0.0000)
  61 Cl     7.002012    7.043281   21.158918    ( 0.0000,  0.0000,  0.0000)
  62 Cl     6.530030    1.967311   21.288239    ( 0.0000,  0.0000,  0.0000)
  63 Cl     1.161358    5.626934    7.961983    ( 0.0000,  0.0000,  0.0000)
  64 Cl     6.778566    3.165081    7.741426    ( 0.0000,  0.0000,  0.0000)
  65 Cl     0.913018    4.429267   21.509483    ( 0.0000,  0.0000,  0.0000)

Unit cell:
           periodic     x           y           z      points  spacing
  1. axis:    yes    7.851007    0.000000    0.000000    45     0.1655
  2. axis:    yes    2.617002    7.851007    0.000000    48     0.1636
  3. axis:    yes    0.000000    0.000000   30.683867   175     0.1753

  Lengths:   7.851007   8.275688  30.683867
  Angles:   90.000000  90.000000  71.565053

Effective grid spacing dv^(1/3) = 0.1710

     iter     time        total  log10-change:
                         energy  eigst   dens
iter:   1 07:04:05 -4567.009799  -0.66
iter:   2 07:04:56 -4530.772642  -1.17  -1.47
iter:   3 07:06:00 -4528.931393  -2.26  -1.97
iter:   4 07:06:53 -4529.282823  -2.16  -2.06
iter:   5 07:07:53 -4527.513887  -2.52  -2.06
iter:   6 07:08:55 -4527.398256  -2.80  -2.29
iter:   7 07:09:48 -4527.216363c -2.95  -2.40
iter:   8 07:10:41 -4527.145926c -3.05  -2.54
iter:   9 07:11:32 -4527.103585c -3.68  -2.75
iter:  10 07:12:25 -4527.099111c -4.04  -2.77
iter:  11 07:13:19 -4527.103529c -4.36  -2.92
iter:  12 07:14:23 -4527.096197c -4.43  -3.03
iter:  13 07:15:16 -4527.093428c -5.64  -3.17
iter:  14 07:16:10 -4527.088422c -4.87  -3.21
iter:  15 07:17:08 -4527.089239c -5.40  -3.47
iter:  16 07:18:07 -4527.088017c -5.37  -3.56
iter:  17 07:19:16 -4527.088264c -6.34  -3.85
iter:  18 07:20:27 -4527.088314c -6.39  -3.87
iter:  19 07:21:19 -4527.088620c -5.68  -4.00c
iter:  20 07:22:11 -4527.088074c -6.46  -4.23c
iter:  21 07:23:13 -4527.088181c -7.16  -4.34c
iter:  22 07:24:22 -4527.088281c -7.05  -4.40c
iter:  23 07:25:14 -4527.088299c -7.41c -4.50c

Converged after 23 iterations.

Dipole moment: (-25.145424, -38.013957, 0.000506) |e|*Ang

Energy contributions relative to reference atoms: (reference = -2581817.792169)

Kinetic:       +483.060229
Potential:     -517.995444
External:        +0.000000
XC:            -4490.775320
Entropy (-ST):   -0.640073
Local:           -1.057726
--------------------------
Free energy:   -4527.408335
Extrapolated:  -4527.088299

Showing only first 2 kpts
 Kpt  Band  Eigenvalues  Occupancy
  0   337     -0.82181    1.89997
  0   338     -0.77576    1.84598
  0   339     -0.60543    1.37150
  0   340     -0.53670    1.04649

  1   337     -0.69438    1.68312
  1   338     -0.53195    1.02275
  1   339     -0.48494    0.79085
  1   340     -0.41900    0.50554


Fermi level: -0.52739

No gap

Forces in eV/Ang:
  0 Cu    0.00082    0.01712    0.24713
  1 Cu    0.03939   -0.04234   -0.39355
  2 Cu   -0.01949   -0.01319   -0.29215
  3 Cu    0.01240    0.00614   -0.20498
  4 Cu    0.00166    0.01502    0.21344
  5 Cu    0.00545    0.00515    0.18992
  6 Cu    0.01443   -0.05286    0.34532
  7 Cu   -0.01695    0.21765    0.02808
  8 Cu    0.08729   -0.25170   -0.53775
  9 Cu    0.02738    0.01888   -0.28569
 10 Cu   -0.01118   -0.01664    0.21571
 11 Cu    0.01417   -0.17337    0.09715
 12 Cu   -0.16183   -0.13413   -0.06739
 13 Cu    0.00926    0.03083   -0.32160
 14 Cu   -0.02357   -0.01525   -0.19532
 15 Cu   -0.01480   -0.01307    0.21683
 16 Cu   -0.01520    0.04684    0.36263
 17 Cu    0.02140   -0.21941   -0.14300
 18 Cu    0.16302    0.16923    0.01300
 19 Cu    0.01979   -0.21556    0.16319
 20 Cu   -0.03859    0.02383   -0.39151
 21 Cu   -0.01581   -0.03004   -0.32812
 22 Cu    0.01059    0.00880   -0.20277
 23 Cu    0.00192   -0.00276   -0.22104
 24 Cu   -0.00187    0.00294    0.22217
 25 Cu    0.02185    0.00708    0.18561
 26 Cu   -0.00083   -0.00506    0.32288
 27 Cu    0.03864   -0.02418    0.39134
 28 Cu   -0.01892    0.21788   -0.16772
 29 Cu   -0.04729    0.25605   -0.51260
 30 Cu    0.04660   -0.25455    0.51028
 31 Cu   -0.02206    0.21726    0.13743
 32 Cu    0.01490   -0.04655   -0.36350
 33 Cu    0.00072    0.00537   -0.32181
 34 Cu   -0.02218   -0.00683   -0.18502
 35 Cu    0.01471    0.01323   -0.21606
 36 Cu    0.02337    0.01556    0.19634
 37 Cu   -0.01051   -0.00865    0.20371
 38 Cu    0.01543    0.03009    0.32720
 39 Cu   -0.00963   -0.03003    0.32075
 40 Cu    0.16178    0.13467    0.06366
 41 Cu   -0.16266   -0.17076   -0.01608
 42 Cu   -0.01412    0.17298   -0.10031
 43 Cu    0.01676   -0.21691   -0.03148
 44 Cu   -0.01413    0.05316   -0.34594
 45 Cu    0.01131    0.01672   -0.21492
 46 Cu   -0.00167   -0.01463   -0.21253
 47 Cu   -0.01255   -0.00601    0.20551
 48 Cu   -0.02704   -0.01896    0.28567
 49 Cu   -0.03927    0.04328    0.39328
 50 Cu   -0.00159   -0.01713   -0.24720
 51 Cu   -0.08551    0.24958    0.53466
 52 Cu   -0.00553   -0.00486   -0.18919
 53 Cu    0.01933    0.01402    0.29229
 54 Cl   -0.07352    0.03855   -0.54904
 55 Cl    0.07426   -0.03881    0.54952
 56 Cl   -0.13871    0.18738   -0.24688
 57 Cl    0.13787   -0.18802    0.25207
 58 Cl    0.11062    0.03196   -0.63696
 59 Cl   -0.11051   -0.03108    0.64040
 60 Cl   -0.09127    0.03788    0.56211
 61 Cl    0.09006   -0.03664   -0.56104
 62 Cl    0.10797   -0.18737   -0.27570
 63 Cl   -0.10682    0.18874    0.28043
 64 Cl    0.10831    0.02855    0.73377
 65 Cl   -0.10868   -0.02955   -0.73086

System changes: positions 

Initializing position-dependent things.

Density initialized from wave functions
                                     
                                     
                                     
                                     
                 Cl        Cl        
           Cl                        
                    Cl               
           Cu    Cu    Clu           
         Cu  ClCu    Cu     Cu       
               Cu     Cu             
       Cu    CCu   CCu    Cu         
                                     
           Cu    CCu    Cu           
         Cu    Cu    CCu    Cu       
                                     
       Cu    CCu    Cu    Cu         
           Cu    CCu    Cu           
                                     
         Cu    CCu   CCu    Cu       
             Cu     Cu               
       Cu     Cu    CuCl  Cu         
           Cul    Cu    Cu           
               Cl                    
                        Cl           
        Cl        Cl                 
                                     
                                     
                                     
                                     

Positions:
   0 Cu     1.880612    1.833511    9.753931    ( 0.0000,  0.0000,  0.0000)
   1 Cu     0.552158    0.528870   11.746591    ( 0.0000,  0.0000,  0.0000)
   2 Cu     3.171170    0.518693   11.762620    ( 0.0000,  0.0000,  0.0000)
   3 Cu     1.882603    1.832696   13.686293    ( 0.0000,  0.0000,  0.0000)
   4 Cu     0.575489    0.525865   15.559776    ( 0.0000,  0.0000,  0.0000)
   5 Cu     3.193421    0.525992   15.565229    ( 0.0000,  0.0000,  0.0000)
   6 Cu     1.870131    1.838657   17.508785    ( 0.0000,  0.0000,  0.0000)
   7 Cu     0.621231    0.487980   19.554323    ( 0.0000,  0.0000,  0.0000)
   8 Cu     3.236902    0.522880   19.479319    ( 0.0000,  0.0000,  0.0000)
   9 Cu     0.592537    3.149510   11.760221    ( 0.0000,  0.0000,  0.0000)
  10 Cu     0.573911    3.143482   15.562687    ( 0.0000,  0.0000,  0.0000)
  11 Cu     0.527136    3.187539   19.563876    ( 0.0000,  0.0000,  0.0000)
  12 Cu     7.110507    1.873865    9.689664    ( 0.0000,  0.0000,  0.0000)
  13 Cu     5.796958    0.531473   11.741961    ( 0.0000,  0.0000,  0.0000)
  14 Cu     7.114733    1.838890   13.685760    ( 0.0000,  0.0000,  0.0000)
  15 Cu     5.817504    0.525764   15.566948    ( 0.0000,  0.0000,  0.0000)
  16 Cu     7.128713    1.831419   17.511522    ( 0.0000,  0.0000,  0.0000)
  17 Cu     5.853067    0.536221   19.536888    ( 0.0000,  0.0000,  0.0000)
  18 Cu     4.502545    1.801626    9.705214    ( 0.0000,  0.0000,  0.0000)
  19 Cu     4.544877    4.457176    9.719381    ( 0.0000,  0.0000,  0.0000)
  20 Cu     3.213349    3.142379   11.749988    ( 0.0000,  0.0000,  0.0000)
  21 Cu     5.818604    3.137802   11.737345    ( 0.0000,  0.0000,  0.0000)
  22 Cu     4.501100    1.832928   13.688536    ( 0.0000,  0.0000,  0.0000)
  23 Cu     4.509791    4.448302   13.690448    ( 0.0000,  0.0000,  0.0000)
  24 Cu     3.181303    3.146529   15.560164    ( 0.0000,  0.0000,  0.0000)
  25 Cu     5.805615    3.141065   15.568616    ( 0.0000,  0.0000,  0.0000)
  26 Cu     4.498215    1.834544   17.477141    ( 0.0000,  0.0000,  0.0000)
  27 Cu     4.477707    4.452461   17.500801    ( 0.0000,  0.0000,  0.0000)
  28 Cu     3.146312    3.137634   19.531719    ( 0.0000,  0.0000,  0.0000)
  29 Cu     5.762528    3.140341   19.482622    ( 0.0000,  0.0000,  0.0000)
  30 Cu     1.928491    4.454485    9.767798    ( 0.0000,  0.0000,  0.0000)
  31 Cu     1.838007    7.058296    9.714010    ( 0.0000,  0.0000,  0.0000)
  32 Cu     0.562374    5.763250   11.739157    ( 0.0000,  0.0000,  0.0000)
  33 Cu     3.192826    5.760260   11.773704    ( 0.0000,  0.0000,  0.0000)
  34 Cu     1.885500    4.453722   13.682053    ( 0.0000,  0.0000,  0.0000)
  35 Cu     1.873570    7.069026   13.683676    ( 0.0000,  0.0000,  0.0000)
  36 Cu     0.576443    5.755865   15.564895    ( 0.0000,  0.0000,  0.0000)
  37 Cu     3.189957    5.761893   15.562127    ( 0.0000,  0.0000,  0.0000)
  38 Cu     1.872512    4.456974   17.513528    ( 0.0000,  0.0000,  0.0000)
  39 Cu     1.894211    7.063304   17.508858    ( 0.0000,  0.0000,  0.0000)
  40 Cu     0.580587    5.720801   19.561545    ( 0.0000,  0.0000,  0.0000)
  41 Cu     3.188564    5.793017   19.545446    ( 0.0000,  0.0000,  0.0000)
  42 Cu     7.163847    4.407025    9.686854    ( 0.0000,  0.0000,  0.0000)
  43 Cu     7.070101    7.106693    9.696732    ( 0.0000,  0.0000,  0.0000)
  44 Cu     5.820894    5.756200   11.741870    ( 0.0000,  0.0000,  0.0000)
  45 Cu     7.117100    4.451373   13.688007    ( 0.0000,  0.0000,  0.0000)
  46 Cu     7.115636    7.068884   13.690893    ( 0.0000,  0.0000,  0.0000)
  47 Cu     5.808478    5.762120   15.564337    ( 0.0000,  0.0000,  0.0000)
  48 Cu     7.098580    4.445297   17.490670    ( 0.0000,  0.0000,  0.0000)
  49 Cu     7.139130    7.065861   17.504213    ( 0.0000,  0.0000,  0.0000)
  50 Cu     5.810467    5.761227   19.496503    ( 0.0000,  0.0000,  0.0000)
  51 Cu     4.454392    7.071710    9.771102    ( 0.0000,  0.0000,  0.0000)
  52 Cu     4.497663    7.068780   13.685455    ( 0.0000,  0.0000,  0.0000)
  53 Cu     4.519972    7.076103   17.488321    ( 0.0000,  0.0000,  0.0000)
  54 Cl     4.579342    4.487273   20.979672    ( 0.0000,  0.0000,  0.0000)
  55 Cl     3.112081    3.107132    8.271400    ( 0.0000,  0.0000,  0.0000)
  56 Cl     2.419846    1.733511   21.138787    ( 0.0000,  0.0000,  0.0000)
  57 Cl     5.271467    5.860757    8.112427    ( 0.0000,  0.0000,  0.0000)
  58 Cl     2.812402    7.087937   21.305541    ( 0.0000,  0.0000,  0.0000)
  59 Cl     4.878881    0.506325    7.945698    ( 0.0000,  0.0000,  0.0000)
  60 Cl     0.681959    0.560756    8.263477    ( 0.0000,  0.0000,  0.0000)
  61 Cl     7.009297    7.033460   20.987569    ( 0.0000,  0.0000,  0.0000)
  62 Cl     6.533743    1.939105   21.161294    ( 0.0000,  0.0000,  0.0000)
  63 Cl     1.157800    5.655288    8.089401    ( 0.0000,  0.0000,  0.0000)
  64 Cl     6.797505    3.169580    7.908664    ( 0.0000,  0.0000,  0.0000)
  65 Cl     0.894063    4.424674   21.342515    ( 0.0000,  0.0000,  0.0000)

Unit cell:
           periodic     x           y           z      points  spacing
  1. axis:    yes    7.851007    0.000000    0.000000    45     0.1655
  2. axis:    yes    2.617002    7.851007    0.000000    48     0.1636
  3. axis:    yes    0.000000    0.000000   30.683867   175     0.1753

  Lengths:   7.851007   8.275688  30.683867
  Angles:   90.000000  90.000000  71.565053

Effective grid spacing dv^(1/3) = 0.1710

     iter     time        total  log10-change:
                         energy  eigst   dens
iter:   1 07:26:38 -4707.763499  -0.15
iter:   2 07:27:35 -4558.200178  -0.19  -0.98
iter:   3 07:28:42 -4530.844988  -1.65  -1.63
iter:   4 07:29:56 -4528.971497  -2.61  -1.99
iter:   5 07:30:48 -4527.822948  -2.03  -2.07
iter:   6 07:31:41 -4527.387652  -2.51  -2.22
iter:   7 07:32:43 -4527.079413  -3.05  -2.45
iter:   8 07:33:36 -4527.015405  -3.40  -2.58
iter:   9 07:34:33 -4526.971689c -3.10  -2.71
iter:  10 07:35:39 -4526.980951c -4.03  -2.88
iter:  11 07:36:32 -4526.939375c -3.56  -2.96
iter:  12 07:37:25 -4526.949546c -4.06  -3.19
iter:  13 07:38:30 -4526.936080c -4.67  -3.32
iter:  14 07:39:28 -4526.932378c -4.74  -3.43
iter:  15 07:40:21 -4526.932937c -4.81  -3.51
iter:  16 07:41:14 -4526.932340c -5.72  -3.69
iter:  17 07:42:06 -4526.931551c -5.99  -3.88
iter:  18 07:43:03 -4526.931161c -5.80  -3.95
iter:  19 07:44:07 -4526.931231c -6.46  -4.07c
iter:  20 07:45:05 -4526.931398c -6.39  -4.16c
iter:  21 07:46:09 -4526.931321c -6.90  -4.18c
iter:  22 07:47:15 -4526.931109c -6.21  -4.23c
iter:  23 07:48:08 -4526.931100c -6.70  -4.30c
iter:  24 07:49:02 -4526.931136c -7.07  -4.40c
iter:  25 07:49:54 -4526.931157c -7.26  -4.66c
iter:  26 07:50:47 -4526.931171c -7.41c -4.76c

Converged after 26 iterations.

Dipole moment: (-25.671018, -38.028020, -0.000694) |e|*Ang

Energy contributions relative to reference atoms: (reference = -2581817.792169)

Kinetic:       +545.295986
Potential:     -567.689088
External:        +0.000000
XC:            -4503.223924
Entropy (-ST):   -0.578106
Local:           -1.025091
--------------------------
Free energy:   -4527.220224
Extrapolated:  -4526.931171

Showing only first 2 kpts
 Kpt  Band  Eigenvalues  Occupancy
  0   337     -0.43176    1.88703
  0   338     -0.38515    1.82579
  0   339     -0.21590    1.31720
  0   340     -0.19783    1.23376

  1   337     -0.30756    1.65662
  1   338     -0.15324    1.01522
  1   339     -0.10080    0.75792
  1   340     -0.07448    0.63853


Fermi level: -0.15019

No gap

Forces in eV/Ang:
  0 Cu    0.01450    0.03563    0.98981
  1 Cu   -0.01523    0.00544   -0.16170
  2 Cu    0.03681    0.00852   -0.14692
  3 Cu    0.00683    0.00402   -0.14466
  4 Cu   -0.00496    0.01487    0.14549
  5 Cu    0.00920    0.00399    0.11903
  6 Cu   -0.00180   -0.02042    0.20770
  7 Cu    0.18427    0.66867   -1.00875
  8 Cu    0.00691   -0.15455   -1.25485
  9 Cu   -0.03660   -0.00876   -0.14353
 10 Cu   -0.00232   -0.01621    0.14972
 11 Cu   -0.17145   -0.65620   -0.98735
 12 Cu   -0.17041   -0.39898    1.05715
 13 Cu   -0.00526    0.00802   -0.18650
 14 Cu   -0.00456   -0.01579   -0.13712
 15 Cu   -0.00862   -0.01406    0.15366
 16 Cu    0.00003    0.02013    0.22412
 17 Cu   -0.03505   -0.32382   -0.86565
 18 Cu    0.16278    0.38890    1.11920
 19 Cu   -0.03522   -0.28844    0.87176
 20 Cu    0.00732   -0.00634   -0.15684
 21 Cu    0.01379   -0.00686   -0.18921
 22 Cu   -0.00283    0.01037   -0.14185
 23 Cu   -0.00157   -0.00486   -0.15695
 24 Cu    0.00145    0.00509    0.15688
 25 Cu    0.00588    0.00543    0.11724
 26 Cu    0.00336    0.00122    0.14786
 27 Cu   -0.00739    0.00646    0.15739
 28 Cu    0.03392    0.28693   -0.86867
 29 Cu    0.00533    0.20520   -1.27377
 30 Cu   -0.00379   -0.20755    1.27771
 31 Cu    0.03558    0.32445    0.86702
 32 Cu   -0.00022   -0.01961   -0.22212
 33 Cu   -0.00343   -0.00096   -0.14914
 34 Cu   -0.00632   -0.00508   -0.11688
 35 Cu    0.00868    0.01428   -0.15332
 36 Cu    0.00406    0.01623    0.13735
 37 Cu    0.00302   -0.01018    0.14190
 38 Cu   -0.01407    0.00722    0.19095
 39 Cu    0.00528   -0.00778    0.18801
 40 Cu    0.17098    0.39754   -1.05593
 41 Cu   -0.16245   -0.38798   -1.11599
 42 Cu    0.17241    0.65781    0.98933
 43 Cu   -0.18502   -0.67016    1.01200
 44 Cu    0.00198    0.02065   -0.20549
 45 Cu    0.00258    0.01628   -0.14990
 46 Cu    0.00479   -0.01443   -0.14585
 47 Cu   -0.00682   -0.00377    0.14508
 48 Cu    0.03666    0.00877    0.14290
 49 Cu    0.01508   -0.00507    0.16256
 50 Cu   -0.01516   -0.03542   -0.98877
 51 Cu   -0.00736    0.15639    1.25907
 52 Cu   -0.00926   -0.00361   -0.11895
 53 Cu   -0.03684   -0.00805    0.14602
 54 Cl   -0.11391   -0.11620    0.77271
 55 Cl    0.11398    0.11716   -0.77573
 56 Cl   -0.32821    0.02574    0.91046
 57 Cl    0.33007   -0.02682   -0.91543
 58 Cl   -0.18936   -0.06782    1.19839
 59 Cl    0.19018    0.06821   -1.20288
 60 Cl   -0.16294   -0.13348   -0.77317
 61 Cl    0.16158    0.13469    0.77056
 62 Cl    0.32144   -0.05554    0.95116
 63 Cl   -0.32239    0.05782   -0.95540
 64 Cl   -0.15642   -0.07994   -1.15013
 65 Cl    0.15593    0.07964    1.14581

System changes: positions 

Initializing position-dependent things.

Density initialized from wave functions
                                     
                                     
                                     
                                     
                 Cl        Cl        
                                     
           Cl       Cl               
           Cu    Cu    Clu           
             Cl                      
         Cu    Cu    CCu    Cu       
             Cu                      
       Cu     Cu   CCu    Cu         
           Cu    CCu    Cu           
                            Cu       
         Cu    Cu    CCu             
             CCu    Cu    Cu         
       Cu                            
           Cu    CCu    Cu           
         Cu    CCu   Cu     Cu       
                      Cu             
       Cu    CCu    Cu    Cu         
                      Cl             
           Cul    Cu    Cu           
               Cl       Cl           
                                     
        Cl        Cl                 
                                     
                                     
                                     
                                     

Positions:
   0 Cu     1.880537    1.832963    9.766127    ( 0.0000,  0.0000,  0.0000)
   1 Cu     0.549616    0.531601   11.776752    ( 0.0000,  0.0000,  0.0000)
   2 Cu     3.173649    0.519444   11.787524    ( 0.0000,  0.0000,  0.0000)
   3 Cu     1.882314    1.832604   13.697358    ( 0.0000,  0.0000,  0.0000)
   4 Cu     0.575860    0.526068   15.547461    ( 0.0000,  0.0000,  0.0000)
   5 Cu     3.193417    0.525564   15.553511    ( 0.0000,  0.0000,  0.0000)
   6 Cu     1.870863    1.841851   17.480729    ( 0.0000,  0.0000,  0.0000)
   7 Cu     0.623503    0.482819   19.525791    ( 0.0000,  0.0000,  0.0000)
   8 Cu     3.233785    0.536657   19.479835    ( 0.0000,  0.0000,  0.0000)
   9 Cu     0.589384    3.148298   11.784963    ( 0.0000,  0.0000,  0.0000)
  10 Cu     0.574071    3.143461   15.549887    ( 0.0000,  0.0000,  0.0000)
  11 Cu     0.524555    3.189900   19.531563    ( 0.0000,  0.0000,  0.0000)
  12 Cu     7.118649    1.877036    9.722537    ( 0.0000,  0.0000,  0.0000)
  13 Cu     5.794718    0.529062   11.769348    ( 0.0000,  0.0000,  0.0000)
  14 Cu     7.115616    1.838899   13.698045    ( 0.0000,  0.0000,  0.0000)
  15 Cu     5.817612    0.525699   15.554091    ( 0.0000,  0.0000,  0.0000)
  16 Cu     7.127708    1.828510   17.482533    ( 0.0000,  0.0000,  0.0000)
  17 Cu     5.853373    0.544389   19.519129    ( 0.0000,  0.0000,  0.0000)
  18 Cu     4.493870    1.795814    9.734077    ( 0.0000,  0.0000,  0.0000)
  19 Cu     4.545570    4.465818    9.736092    ( 0.0000,  0.0000,  0.0000)
  20 Cu     3.215808    3.140891   11.780095    ( 0.0000,  0.0000,  0.0000)
  21 Cu     5.821606    3.139984   11.765239    ( 0.0000,  0.0000,  0.0000)
  22 Cu     4.500551    1.832905   13.700878    ( 0.0000,  0.0000,  0.0000)
  23 Cu     4.509556    4.448466   13.702861    ( 0.0000,  0.0000,  0.0000)
  24 Cu     3.181535    3.146353   15.547691    ( 0.0000,  0.0000,  0.0000)
  25 Cu     5.804768    3.141337   15.556850    ( 0.0000,  0.0000,  0.0000)
  26 Cu     4.498644    1.834807   17.450423    ( 0.0000,  0.0000,  0.0000)
  27 Cu     4.475248    4.453958   17.470735    ( 0.0000,  0.0000,  0.0000)
  28 Cu     3.145551    3.128848   19.515268    ( 0.0000,  0.0000,  0.0000)
  29 Cu     5.763438    3.127083   19.481908    ( 0.0000,  0.0000,  0.0000)
  30 Cu     1.927619    4.467644    9.768677    ( 0.0000,  0.0000,  0.0000)
  31 Cu     1.837746    7.050241    9.732083    ( 0.0000,  0.0000,  0.0000)
  32 Cu     0.563390    5.766147   11.768217    ( 0.0000,  0.0000,  0.0000)
  33 Cu     3.192405    5.759970   11.800325    ( 0.0000,  0.0000,  0.0000)
  34 Cu     1.886356    4.453435   13.693770    ( 0.0000,  0.0000,  0.0000)
  35 Cu     1.873481    7.069064   13.696488    ( 0.0000,  0.0000,  0.0000)
  36 Cu     0.575558    5.755842   15.552540    ( 0.0000,  0.0000,  0.0000)
  37 Cu     3.190516    5.761891   15.549713    ( 0.0000,  0.0000,  0.0000)
  38 Cu     1.869534    4.454788   17.485676    ( 0.0000,  0.0000,  0.0000)
  39 Cu     1.896481    7.065645   17.481525    ( 0.0000,  0.0000,  0.0000)
  40 Cu     0.572452    5.717589   19.528900    ( 0.0000,  0.0000,  0.0000)
  41 Cu     3.197229    5.798902   19.516842    ( 0.0000,  0.0000,  0.0000)
  42 Cu     7.166446    4.404688    9.719368    ( 0.0000,  0.0000,  0.0000)
  43 Cu     7.067816    7.111801    9.725458    ( 0.0000,  0.0000,  0.0000)
  44 Cu     5.820153    5.752967   11.769985    ( 0.0000,  0.0000,  0.0000)
  45 Cu     7.116951    4.451367   13.700746    ( 0.0000,  0.0000,  0.0000)
  46 Cu     7.115253    7.068663   13.703145    ( 0.0000,  0.0000,  0.0000)
  47 Cu     5.808787    5.762194   15.553256    ( 0.0000,  0.0000,  0.0000)
  48 Cu     7.101723    4.446502   17.465903    ( 0.0000,  0.0000,  0.0000)
  49 Cu     7.141664    7.063070   17.474094    ( 0.0000,  0.0000,  0.0000)
  50 Cu     5.810587    5.761771   19.484416    ( 0.0000,  0.0000,  0.0000)
  51 Cu     4.457406    7.058047    9.770793    ( 0.0000,  0.0000,  0.0000)
  52 Cu     4.497681    7.069186   13.697114    ( 0.0000,  0.0000,  0.0000)
  53 Cu     4.517498    7.075292   17.463366    ( 0.0000,  0.0000,  0.0000)
[...]
 10 Cu   -0.00106   -0.00647    0.00730
 11 Cu    0.00162   -0.00098    0.00438
 12 Cu   -0.00840   -0.00934    0.00821
 13 Cu   -0.00063   -0.00518   -0.00337
 14 Cu    0.00102    0.00904   -0.00770
 15 Cu    0.00122   -0.00432    0.00268
 16 Cu    0.00535   -0.00700    0.00520
 17 Cu   -0.00938   -0.00261   -0.00145
 18 Cu    0.00822    0.00083   -0.00068
 19 Cu   -0.00807   -0.00178   -0.00177
 20 Cu   -0.00215    0.00163   -0.00903
 21 Cu   -0.00095    0.00628   -0.00133
 22 Cu    0.00223   -0.00344   -0.00069
 23 Cu   -0.00161   -0.00531   -0.00129
 24 Cu    0.00135    0.00527   -0.00003
 25 Cu    0.00271   -0.00457    0.00374
 26 Cu   -0.00129    0.00217    0.00494
 27 Cu    0.00205   -0.00160    0.00774
 28 Cu    0.00820    0.00158    0.00200
 29 Cu    0.00671   -0.00940    0.00736
 30 Cu   -0.00703    0.00908   -0.00671
 31 Cu    0.00907    0.00339    0.00144
 32 Cu   -0.00537    0.00726   -0.00666
 33 Cu    0.00128   -0.00203   -0.00656
 34 Cu   -0.00277    0.00474   -0.00529
 35 Cu   -0.00107    0.00454   -0.00468
 36 Cu   -0.00130   -0.00888    0.00524
 37 Cu   -0.00216    0.00349   -0.00108
 38 Cu    0.00101   -0.00597    0.00026
 39 Cu    0.00033    0.00515    0.00226
 40 Cu    0.00825    0.00899   -0.00710
 41 Cu   -0.00842   -0.00027    0.00157
 42 Cu   -0.00178    0.00211   -0.00390
 43 Cu    0.00405    0.00124   -0.01332
 44 Cu    0.00414   -0.00804   -0.00239
 45 Cu    0.00136    0.00667   -0.00986
 46 Cu    0.00602   -0.00356   -0.00787
 47 Cu    0.00284    0.00379   -0.00675
 48 Cu    0.00378   -0.00587    0.00140
 49 Cu   -0.00291    0.00197    0.00839
 50 Cu   -0.00059   -0.00028   -0.00575
 51 Cu    0.00717   -0.00660   -0.00710
 52 Cu   -0.00196   -0.00471   -0.00103
 53 Cu   -0.00619    0.00493    0.00106
 54 Cl    0.01881   -0.01062   -0.02614
 55 Cl   -0.01848    0.01118    0.02912
 56 Cl   -0.00467    0.00037    0.00874
 57 Cl    0.00430    0.00009   -0.00612
 58 Cl    0.00949   -0.00934    0.02312
 59 Cl   -0.00844    0.00937   -0.02259
 60 Cl    0.01674   -0.01468    0.02774
 61 Cl   -0.01734    0.01478   -0.02567
 62 Cl    0.01354   -0.00491    0.01078
 63 Cl   -0.01372    0.00547   -0.00929
 64 Cl    0.00293   -0.00891   -0.03433
 65 Cl   -0.00322    0.00859    0.03480

System changes: positions 

Initializing position-dependent things.

Density initialized from wave functions
                                     
                                     
                                     
                                     
                 Cl        Cl        
           Cl                        
                    Cl               
           Cu    Cu     Cu           
            Cl Cu    CuCl   Cu       
         Cu    Cu     Cu             
       Cu    Cu     Cu    Cu         
              Cu    Cu               
           Cu    CCu    Cu           
         Cu    Cu    CCu    Cu       
                                     
       Cu    CCu    Cu    Cu         
           Cu    CCu    Cu           
               Cu    Cu              
         Cu    Cu     Cu    Cu       
             Cu     Cu    Cu         
       Cu   ClCu    Cu Cl            
           Cu     Cu    Cu           
               Cl                    
                        Cl           
        Cl        Cl                 
                                     
                                     
                                     
                                     

Positions:
   0 Cu     1.880099    1.836127   10.010338    ( 0.0000,  0.0000,  0.0000)
   1 Cu     0.555026    0.547261   11.858887    ( 0.0000,  0.0000,  0.0000)
   2 Cu     3.207919    0.523980   11.860091    ( 0.0000,  0.0000,  0.0000)
   3 Cu     1.884250    1.832019   13.702005    ( 0.0000,  0.0000,  0.0000)
   4 Cu     0.571752    0.525590   15.543178    ( 0.0000,  0.0000,  0.0000)
   5 Cu     3.187219    0.524324   15.551629    ( 0.0000,  0.0000,  0.0000)
   6 Cu     1.860456    1.844705   17.413911    ( 0.0000,  0.0000,  0.0000)
   7 Cu     0.596214    0.526470   19.353087    ( 0.0000,  0.0000,  0.0000)
   8 Cu     3.199771    0.522264   19.159175    ( 0.0000,  0.0000,  0.0000)
   9 Cu     0.553125    3.144365   11.858953    ( 0.0000,  0.0000,  0.0000)
  10 Cu     0.577875    3.141487   15.547468    ( 0.0000,  0.0000,  0.0000)
  11 Cu     0.553424    3.145323   19.364200    ( 0.0000,  0.0000,  0.0000)
  12 Cu     7.089087    1.851065    9.930666    ( 0.0000,  0.0000,  0.0000)
  13 Cu     5.796419    0.536017   11.827923    ( 0.0000,  0.0000,  0.0000)
  14 Cu     7.107209    1.836905   13.710742    ( 0.0000,  0.0000,  0.0000)
  15 Cu     5.819556    0.520358   15.557324    ( 0.0000,  0.0000,  0.0000)
  16 Cu     7.141749    1.825457   17.418595    ( 0.0000,  0.0000,  0.0000)
  17 Cu     5.810786    0.503547   19.242805    ( 0.0000,  0.0000,  0.0000)
  18 Cu     4.520078    1.820932    9.949061    ( 0.0000,  0.0000,  0.0000)
  19 Cu     4.498036    4.430329   10.009763    ( 0.0000,  0.0000,  0.0000)
  20 Cu     3.209199    3.126062   11.863103    ( 0.0000,  0.0000,  0.0000)
  21 Cu     5.819219    3.135309   11.822543    ( 0.0000,  0.0000,  0.0000)
  22 Cu     4.505761    1.836464   13.718472    ( 0.0000,  0.0000,  0.0000)
  23 Cu     4.513512    4.443936   13.705970    ( 0.0000,  0.0000,  0.0000)
  24 Cu     3.177676    3.151499   15.547208    ( 0.0000,  0.0000,  0.0000)
  25 Cu     5.816240    3.147192   15.557087    ( 0.0000,  0.0000,  0.0000)
  26 Cu     4.500389    1.836566   17.355279    ( 0.0000,  0.0000,  0.0000)
  27 Cu     4.481908    4.469513   17.389032    ( 0.0000,  0.0000,  0.0000)
  28 Cu     3.193165    3.165090   19.241349    ( 0.0000,  0.0000,  0.0000)
  29 Cu     5.804975    3.148469   19.161920    ( 0.0000,  0.0000,  0.0000)
  30 Cu     1.886390    4.447048   10.089483    ( 0.0000,  0.0000,  0.0000)
  31 Cu     1.880518    7.091771   10.008450    ( 0.0000,  0.0000,  0.0000)
  32 Cu     0.549670    5.769895   11.834027    ( 0.0000,  0.0000,  0.0000)
  33 Cu     3.190863    5.758960   11.897489    ( 0.0000,  0.0000,  0.0000)
  34 Cu     1.874954    4.448222   13.696260    ( 0.0000,  0.0000,  0.0000)
  35 Cu     1.871686    7.075197   13.696023    ( 0.0000,  0.0000,  0.0000)
  36 Cu     0.584031    5.758577   15.542462    ( 0.0000,  0.0000,  0.0000)
  37 Cu     3.185324    5.759015   15.534645    ( 0.0000,  0.0000,  0.0000)
  38 Cu     1.871929    4.460140   17.429964    ( 0.0000,  0.0000,  0.0000)
  39 Cu     1.894987    7.059430   17.424619    ( 0.0000,  0.0000,  0.0000)
  40 Cu     0.602120    5.744154   19.320386    ( 0.0000,  0.0000,  0.0000)
  41 Cu     3.170934    5.774582   19.302677    ( 0.0000,  0.0000,  0.0000)
  42 Cu     7.137799    4.449887    9.887424    ( 0.0000,  0.0000,  0.0000)
  43 Cu     7.095225    7.068946    9.898718    ( 0.0000,  0.0000,  0.0000)
  44 Cu     5.830667    5.750765   11.838537    ( 0.0000,  0.0000,  0.0000)
  45 Cu     7.113299    4.453934   13.705835    ( 0.0000,  0.0000,  0.0000)
  46 Cu     7.119434    7.069953   13.709971    ( 0.0000,  0.0000,  0.0000)
  47 Cu     5.806907    5.763502   15.551065    ( 0.0000,  0.0000,  0.0000)
  48 Cu     7.138253    4.451016   17.393465    ( 0.0000,  0.0000,  0.0000)
  49 Cu     7.136272    7.048090   17.393171    ( 0.0000,  0.0000,  0.0000)
  50 Cu     5.810917    5.759417   19.240237    ( 0.0000,  0.0000,  0.0000)
  51 Cu     4.491496    7.073080   10.092008    ( 0.0000,  0.0000,  0.0000)
  52 Cu     4.503929    7.071269   13.701685    ( 0.0000,  0.0000,  0.0000)
  53 Cu     4.482998    7.071475   17.392272    ( 0.0000,  0.0000,  0.0000)
  54 Cl     4.624300    4.400024   20.841650    ( 0.0000,  0.0000,  0.0000)
  55 Cl     3.066748    3.195420    8.408929    ( 0.0000,  0.0000,  0.0000)
  56 Cl     2.340128    1.778842   20.919003    ( 0.0000,  0.0000,  0.0000)
  57 Cl     5.351446    5.816246    8.331989    ( 0.0000,  0.0000,  0.0000)
  58 Cl     2.921592    7.024405   21.220559    ( 0.0000,  0.0000,  0.0000)
  59 Cl     4.769480    0.571151    8.031013    ( 0.0000,  0.0000,  0.0000)
  60 Cl     0.711357    0.470644    8.406254    ( 0.0000,  0.0000,  0.0000)
  61 Cl     6.980214    7.124392   20.844249    ( 0.0000,  0.0000,  0.0000)
  62 Cl     6.632947    1.891038   20.931179    ( 0.0000,  0.0000,  0.0000)
  63 Cl     1.058539    5.704456    8.319742    ( 0.0000,  0.0000,  0.0000)
  64 Cl     6.882857    3.104727    8.007424    ( 0.0000,  0.0000,  0.0000)
  65 Cl     0.809204    4.490543   21.243566    ( 0.0000,  0.0000,  0.0000)

Unit cell:
           periodic     x           y           z      points  spacing
  1. axis:    yes    7.851007    0.000000    0.000000    45     0.1655
  2. axis:    yes    2.617002    7.851007    0.000000    48     0.1636
  3. axis:    yes    0.000000    0.000000   30.683867   175     0.1753

  Lengths:   7.851007   8.275688  30.683867
  Angles:   90.000000  90.000000  71.565053

Effective grid spacing dv^(1/3) = 0.1710

     iter     time        total  log10-change:
                         energy  eigst   dens
iter:   1 12:11:11 -4528.597438  -3.51
iter:   2 12:12:04 -4528.570735  -4.14  -2.94
iter:   3 12:12:56 -4528.570894c -5.03  -3.40
iter:   4 12:13:49 -4528.567549c -5.74  -3.41
iter:   5 12:14:41 -4528.566531c -5.19  -3.57
iter:   6 12:15:48 -4528.567015c -6.32  -4.02c
iter:   7 12:16:58 -4528.566972c -6.70  -4.02c
iter:   8 12:17:52 -4528.566747c -6.42  -4.09c
iter:   9 12:18:47 -4528.566790c -6.49  -4.40c
iter:  10 12:19:38 -4528.566760c -7.58c -4.57c

Converged after 10 iterations.

Dipole moment: (-25.299187, -38.241881, 0.000588) |e|*Ang

Energy contributions relative to reference atoms: (reference = -2581817.792169)

Kinetic:       +541.267317
Potential:     -563.848456
External:        +0.000000
XC:            -4504.960075
Entropy (-ST):   -0.594366
Local:           -0.728364
--------------------------
Free energy:   -4528.863943
Extrapolated:  -4528.566760

Showing only first 2 kpts
 Kpt  Band  Eigenvalues  Occupancy
  0   337     -0.66379    1.85929
  0   338     -0.58325    1.71035
  0   339     -0.52701    1.54178
  0   340     -0.47355    1.32692

  1   337     -0.57976    1.70159
  1   338     -0.38958    0.91969
  1   339     -0.36444    0.79669
  1   340     -0.20386    0.23462


Fermi level: -0.40567

No gap

Forces in eV/Ang:
  0 Cu    0.00058    0.00011    0.01681
  1 Cu    0.00278   -0.00883   -0.00290
  2 Cu    0.00885   -0.00681   -0.00622
  3 Cu   -0.00342    0.00140   -0.01092
  4 Cu   -0.00234    0.00411    0.00510
  5 Cu    0.00230    0.00069    0.00578
  6 Cu   -0.00549    0.00253   -0.00593
  7 Cu   -0.00910   -0.01438    0.00849
  8 Cu    0.00491   -0.00201   -0.00523
  9 Cu   -0.01013    0.00648   -0.01113
 10 Cu   -0.00334   -0.00417    0.00381
 11 Cu    0.00740    0.01525    0.00368
 12 Cu    0.00742    0.00548    0.00331
 13 Cu   -0.00465   -0.00156    0.00378
 14 Cu    0.00324    0.00097   -0.00428
 15 Cu   -0.00262   -0.00430    0.00622
 16 Cu    0.00414   -0.00502    0.00039
 17 Cu   -0.00676   -0.00101   -0.00883
 18 Cu   -0.00801   -0.00653   -0.00154
 19 Cu   -0.00713   -0.00446    0.00860
 20 Cu   -0.00610    0.00466   -0.00009
 21 Cu    0.00979    0.00389    0.00123
 22 Cu    0.00124   -0.00425   -0.00496
 23 Cu   -0.00349   -0.00570   -0.00953
 24 Cu    0.00375    0.00570    0.00807
 25 Cu    0.00261   -0.00392    0.00438
 26 Cu    0.00148    0.00171    0.00832
 27 Cu    0.00632   -0.00495   -0.00046
 28 Cu    0.00723    0.00464   -0.00687
 29 Cu   -0.00526   -0.00292   -0.00229
 30 Cu    0.00438    0.00386    0.00304
 31 Cu    0.00646    0.00099    0.00995
 32 Cu   -0.00465    0.00517   -0.00085
 33 Cu   -0.00142   -0.00175   -0.00953
 34 Cu   -0.00264    0.00403   -0.00615
 35 Cu    0.00208    0.00464   -0.00808
 36 Cu   -0.00349   -0.00077    0.00205
 37 Cu   -0.00099    0.00434    0.00349
 38 Cu   -0.00957   -0.00382   -0.00176
 39 Cu    0.00412    0.00182   -0.00442
 40 Cu   -0.00805   -0.00455   -0.00223
 41 Cu    0.00862    0.00587    0.00245
 42 Cu   -0.00723   -0.01527   -0.00296
 43 Cu    0.00887    0.01466   -0.00776
 44 Cu    0.00585   -0.00246    0.00555
 45 Cu    0.00312    0.00455   -0.00613
 46 Cu    0.00239   -0.00401   -0.00688
 47 Cu    0.00349   -0.00133    0.00949
 48 Cu    0.00960   -0.00631    0.00949
 49 Cu   -0.00287    0.00941    0.00235
 50 Cu   -0.00048   -0.00006   -0.01499
 51 Cu   -0.00455    0.00180    0.00610
 52 Cu   -0.00186   -0.00085   -0.00731
 53 Cu   -0.00832    0.00715    0.00475
 54 Cl    0.01404   -0.00100   -0.01115
 55 Cl   -0.01350    0.00175    0.01159
 56 Cl   -0.00685    0.01163    0.02116
 57 Cl    0.00663   -0.01112   -0.02008
 58 Cl    0.01058   -0.00683    0.01697
 59 Cl   -0.01040    0.00673   -0.01514
 60 Cl    0.00888   -0.00029    0.01224
 61 Cl   -0.00903   -0.00012   -0.01181
 62 Cl    0.01113   -0.01519    0.01472
 63 Cl   -0.01111    0.01506   -0.01308
 64 Cl    0.00744   -0.00922   -0.00600
 65 Cl   -0.00756    0.00975    0.00784

Timing:                                      incl.     excl.
-------------------------------------------------------------------
Density initialized from wave functions:   135.159   135.158   0.5% |
 Symmetrize density:                         0.001     0.001   0.0% |
Forces:                                    560.679   560.679   2.2% ||
Hamiltonian:                               262.553     0.429   0.0% |
 Atomic:                                     8.533     2.927   0.0% |
  XC Correction:                             5.605     5.605   0.0% |
 Calculate atomic Hamiltonians:             49.781    49.781   0.2% |
 Communicate:                                5.780     5.780   0.0% |
 Initialize Hamiltonian:                     0.002     0.002   0.0% |
 Poisson:                                    0.144     0.144   0.0% |
 XC 3D grid:                               197.884    28.243   0.1% |
  VdW-DF integral:                         169.641     5.454   0.0% |
   Convolution:                              8.362     8.362   0.0% |
   FFT:                                      4.335     4.335   0.0% |
   gather:                                  85.318    85.318   0.3% |
   hmm1:                                     2.825     2.825   0.0% |
   hmm2:                                     6.256     6.256   0.0% |
   iFFT:                                     4.397     4.397   0.0% |
   potential:                               47.627     0.662   0.0% |
    collect:                                 7.830     7.830   0.0% |
    p1:                                     20.529    20.529   0.1% |
    p2:                                      8.783     8.783   0.0% |
    sum:                                     9.822     9.822   0.0% |
   splines:                                  5.067     5.067   0.0% |
LCAO initialization:                       237.557     0.425   0.0% |
 LCAO eigensolver:                          13.620     0.002   0.0% |
  Blacs Orbital Layouts:                     0.691     0.001   0.0% |
   General diagonalize:                      0.679     0.679   0.0% |
   Redistribute coefs:                       0.008     0.008   0.0% |
   Send coefs to domains:                    0.003     0.003   0.0% |
  Calculate projections:                     0.018     0.018   0.0% |
  Distribute overlap matrix:                12.528     0.001   0.0% |
   Scalapack redistribute:                   0.017     0.017   0.0% |
   blocked summation:                       12.510    12.510   0.0% |
  Potential matrix:                          0.232     0.232   0.0% |
  SparseAtomicCorrection:                    0.028     0.028   0.0% |
  Sum over cells:                            0.120     0.120   0.0% |
 LCAO to grid:                             219.242   219.242   0.8% |
 Set positions (LCAO WFS):                   4.271     0.060   0.0% |
  Basic WFS set positions:                   0.002     0.002   0.0% |
  Basis functions set positions:             0.000     0.000   0.0% |
  P tci:                                     0.086     0.086   0.0% |
  ST tci:                                    0.417     0.417   0.0% |
  Scalapack redistribute:                    0.026     0.026   0.0% |
  blocked summation:                         3.536     3.536   0.0% |
  mktci:                                     0.144     0.144   0.0% |
PWDescriptor:                                0.693     0.693   0.0% |
Redistribute:                                0.041     0.041   0.0% |
SCF-cycle:                               24557.745  1318.886   5.1% |-|
 Davidson:                               17026.469  4259.117  16.4% |------|
  Apply H:                                1772.749  1737.758   6.7% |--|
   HMM T:                                   34.991    34.991   0.1% |
  Subspace diag:                          2983.165     0.094   0.0% |
   calc_h_matrix:                         2225.960   451.585   1.7% ||
    Apply H:                              1774.376  1736.895   6.7% |--|
     HMM T:                                 37.481    37.481   0.1% |
   diagonalize:                            106.933   106.933   0.4% |
   rotate_psi:                             650.177   650.177   2.5% ||
  calc. matrices:                         6277.316  2868.038  11.1% |---|
   Apply H:                               3409.278  3340.769  12.9% |----|
    HMM T:                                  68.509    68.509   0.3% |
  diagonalize:                             553.969   553.969   2.1% ||
  rotate_psi:                             1180.153  1180.153   4.6% |-|
 Density:                                 2148.321     0.020   0.0% |
  Atomic density matrices:                   9.369     9.369   0.0% |
  Mix:                                    1040.402  1040.402   4.0% |-|
  Multipole moments:                         0.697     0.697   0.0% |
  Pseudo density:                         1097.833  1097.815   4.2% |-|
   Symmetrize density:                       0.018     0.018   0.0% |
 Hamiltonian:                             3970.071     7.561   0.0% |
  Atomic:                                  124.356    27.492   0.1% |
   XC Correction:                           96.864    96.864   0.4% |
  Calculate atomic Hamiltonians:           853.388   853.388   3.3% ||
  Communicate:                             112.701   112.701   0.4% |
  Poisson:                                   2.405     2.405   0.0% |
  XC 3D grid:                             2869.660   409.051   1.6% ||
   VdW-DF integral:                       2460.608    86.544   0.3% |
    Convolution:                           134.696   134.696   0.5% |
    FFT:                                    68.583    68.583   0.3% |
    gather:                               1148.621  1148.621   4.4% |-|
    hmm1:                                   43.562    43.562   0.2% |
    hmm2:                                  101.652   101.652   0.4% |
    iFFT:                                   72.163    72.163   0.3% |
    potential:                             804.783    10.336   0.0% |
     collect:                              133.205   133.205   0.5% |
     p1:                                   338.074   338.074   1.3% ||
     p2:                                   144.696   144.696   0.6% |
     sum:                                  178.472   178.472   0.7% |
    splines:                                 0.005     0.005   0.0% |
 Orthonormalize:                            93.997     0.010   0.0% |
  calc_s_matrix:                            12.858    12.858   0.0% |
  inverse-cholesky:                          2.995     2.995   0.0% |
  projections:                              58.916    58.916   0.2% |
  rotate_psi_s:                             19.218    19.218   0.1% |
Set symmetry:                                0.001     0.001   0.0% |
Other:                                     177.323   177.323   0.7% |
-------------------------------------------------------------------
Total:                                             25931.749 100.0%

Memory usage: 1.39 GiB
Date: Sun Oct  9 12:20:01 2022
