
  ___ ___ ___ _ _ _  
 |   |   |_  | | | | 
 | | | | | . | | | | 
 |__ |  _|___|_____|  22.1.0
 |___|_|             

User:   thorkong@node030.cluster
Date:   Sat Oct  8 21:58:30 2022
Arch:   x86_64
Pid:    5447
Python: 3.10.5
gpaw:   /groups/kemi/thorkong/miniconda3/envs/gpaw22/lib/python3.10/site-packages/gpaw
_gpaw:  /groups/kemi/thorkong/miniconda3/envs/gpaw22/lib/python3.10/site-packages/
        _gpaw.cpython-310-x86_64-linux-gnu.so
ase:    /groups/kemi/thorkong/miniconda3/envs/gpaw22/lib/python3.10/site-packages/ase (version 3.22.1)
numpy:  /groups/kemi/thorkong/miniconda3/envs/gpaw22/lib/python3.10/site-packages/numpy (version 1.23.0)
scipy:  /groups/kemi/thorkong/miniconda3/envs/gpaw22/lib/python3.10/site-packages/scipy (version 1.8.1)
libxc:  5.2.3
units:  Angstrom and eV
cores: 32
OpenMP: True
OMP_NUM_THREADS: 1

Input parameters:
  basis: dzp
  kpts: [4 4 1]
  mode: {ecut: 600.0,
         name: pw}
  xc: BEEF-vdW

System changes: positions, numbers, cell, pbc, initial_charges, initial_magmoms 

Initialize ...

Cu-setup:
  name: Copper
  id: f1c4d45d90492f1bbfdcb091e8418fdf
  Z: 29.0
  valence: 11
  core: 18
  charge: 0.0
  file: /groups/kemi/thorkong/miniconda3/envs/gpaw22/share/gpaw/Cu.PBE.gz
  compensation charges: gauss, rc=0.33, lmax=2
  cutoffs: 2.06(filt), 2.43(core),
  valence states:
                energy  radius
    4s(1.00)    -4.609   1.164
    4p(0.00)    -0.698   1.164
    3d(10.00)    -5.039   1.058
    *s          22.603   1.164
    *p          26.513   1.164
    *d          22.172   1.058

  LCAO basis set for Cu:
    Name: dzp
    File: /groups/kemi/thorkong/miniconda3/envs/gpaw22/share/gpaw/Cu.dzp.basis.gz
    Number of radial functions: 5
    Number of spherical harmonics: 15
      l=0, rc=8.9688 Bohr: 4s-sz confined orbital
      l=2, rc=5.1719 Bohr: 3d-sz confined orbital
      l=0, rc=5.3281 Bohr: 4s-dz split-valence wave
      l=2, rc=3.1406 Bohr: 3d-dz split-valence wave
      l=1, rc=8.9688 Bohr: p-type Gaussian polarization

Cl-setup:
  name: Chlorine
  id: 726897f06f34e53cf8e33b5885a02604
  Z: 17.0
  valence: 7
  core: 10
  charge: 0.0
  file: /groups/kemi/thorkong/miniconda3/envs/gpaw22/share/gpaw/Cl.PBE.gz
  compensation charges: gauss, rc=0.25, lmax=2
  cutoffs: 1.40(filt), 1.49(core),
  valence states:
                energy  radius
    3s(2.00)   -20.689   0.794
    3p(5.00)    -8.594   0.794
    *s           6.523   0.794
    *p          18.617   0.794
    *d           0.000   0.794

  LCAO basis set for Cl:
    Name: dzp
    File: /groups/kemi/thorkong/miniconda3/envs/gpaw22/share/gpaw/Cl.dzp.basis.gz
    Number of radial functions: 5
    Number of spherical harmonics: 13
      l=0, rc=5.1719 Bohr: 3s-sz confined orbital
      l=1, rc=6.2656 Bohr: 3p-sz confined orbital
      l=0, rc=2.8281 Bohr: 3s-dz split-valence wave
      l=1, rc=3.5156 Bohr: 3p-dz split-valence wave
      l=2, rc=6.2656 Bohr: d-type Gaussian polarization

Reference energy: -2531597.994586

Spin-paired calculation

Convergence criteria:
 Maximum [total energy] change in last 3 cyles: 0.0005 eV / electron
 Maximum integral of absolute [dens]ity change: 0.0001 electrons / valence electron
 Maximum integral of absolute [eigenst]ate change: 4e-08 eV^2 / valence electron
 Maximum number of scf [iter]ations: 333
 (Square brackets indicate name in SCF output, whereas a 'c' in
 the SCF output indicates the quantity has converged.)

Symmetries present (total): 1

  ( 1  0  0)
  ( 0  1  0)
  ( 0  0  1)

16 k-points: 4 x 4 x 1 Monkhorst-Pack grid
8 k-points in the irreducible part of the Brillouin zone
       k-points in crystal coordinates                weights
   0:     0.12500000   -0.37500000    0.00000000          2/16
   1:     0.12500000   -0.12500000    0.00000000          2/16
   2:     0.12500000    0.12500000    0.00000000          2/16
   3:     0.12500000    0.37500000    0.00000000          2/16
   4:     0.37500000   -0.37500000    0.00000000          2/16
   5:     0.37500000   -0.12500000    0.00000000          2/16
   6:     0.37500000    0.12500000    0.00000000          2/16
   7:     0.37500000    0.37500000    0.00000000          2/16

Wave functions: Plane wave expansion
  Cutoff energy: 600.000 eV
  Number of coefficients (min, max): 54614, 54705
  Pulay-stress correction: 0.000000 eV/Ang^3 (de/decut=0.000000)
  Using FFTW library
  ScaLapack parameters: grid=2x2, blocksize=64
  Wavefunction extrapolation:
    Improved wavefunction reuse through dual PAW basis 

Occupation numbers: Fermi-Dirac: width=0.1000 eV
 

Eigensolver
   Davidson(niter=2) 

Densities:
  Coarse grid: 45*45*175 grid
  Fine grid: 90*90*350 grid
  Total Charge: 0.000000 

Density mixing:
  Method: separate
  Backend: pulay
  Linear mixing parameter: 0.05
  Mixing with 5 old densities
  Damping of long wave oscillations: 50 

Hamiltonian:
  XC and Coulomb potentials evaluated on a 90*90*350 grid
  Using the BEEF-vdW Exchange-Correlation functional
  External potential:
    NoExternalPotential
 

XC parameters: BEEF-vdW with 2 nearest neighbor stencil

Memory estimate:
  Process memory now: 241.34 MiB
  Calculator: 757.84 MiB
    Density: 42.61 MiB
      Arrays: 17.67 MiB
      Localized functions: 18.14 MiB
      Mixer: 6.80 MiB
    Hamiltonian: 12.00 MiB
      Arrays: 11.56 MiB
      XC: 0.00 MiB
      Poisson: 0.00 MiB
      vbar: 0.44 MiB
    Wavefunctions: 703.23 MiB
      Arrays psit_nG: 328.88 MiB
      Eigensolver: 356.76 MiB
      Projections: 1.62 MiB
      Projectors: 2.09 MiB
      PW-descriptor: 13.88 MiB

Total number of cores used: 32
Parallelization over k-points: 8
Domain decomposition: 1 x 1 x 4
                      2 x 2 x 8 (xc only)

Number of atoms: 62
Number of atomic orbitals: 914
Number of bands in calculation: 394
Number of valence electrons: 650
Bands to converge: occupied

... initialized

Initializing position-dependent things.

Density initialized from atomic densities
Creating initial wave functions:
  394 bands from LCAO basis set

                                              
                                              
                                              
                                              
                           Cl       Cl        
                                              
           Cl      Cl                         
                        Cu    Cu     Cu       
                   Cu     Cu    Cu            
               Cu    Cu     Cu                
                    Cu     Cu    Cu           
               Cu     Cu     Cu               
           Cu    Cu     Cu                    
                Cu     Cu    Cu               
            Cu    Cu    CCu                   
       Cu     Cu              Cu     Cu       
                   CCu    Cu    Cu            
               Cu    Cu     Cu                
                    Cu     Cu    Cu           
               Cu     Cu     Cu               
           Cu    Cu     Cu                    
                Cu     Cu    Cu               
            Cu    Cu     Cu                   
       Cu     Cu    Cu                        
                         Cl      Cl           
                                              
        Cl       Cl                           
                                              
                                              
                                              
                                              

Positions:
   0 Cu     2.856456   -0.033548   10.004442    ( 0.0000,  0.0000,  0.0000)
   1 Cu     4.201620    2.271609    9.924706    ( 0.0000,  0.0000,  0.0000)
   2 Cu     0.269556   -0.023160   10.061154    ( 0.0000,  0.0000,  0.0000)
   3 Cu     1.599427    2.253458    9.911443    ( 0.0000,  0.0000,  0.0000)
   4 Cu     2.891239    3.005584   12.131495    ( 0.0000,  0.0000,  0.0000)
   5 Cu     1.584744    0.761214   12.149064    ( 0.0000,  0.0000,  0.0000)
   6 Cu     5.510005    3.007347   12.129795    ( 0.0000,  0.0000,  0.0000)
   7 Cu     4.203646    0.755582   12.093565    ( 0.0000,  0.0000,  0.0000)
   8 Cu     5.509082    1.507301   14.259643    ( 0.0000,  0.0000,  0.0000)
   9 Cu     6.816393    3.774829   14.269161    ( 0.0000,  0.0000,  0.0000)
  10 Cu     2.901964    1.508659   14.276017    ( 0.0000,  0.0000,  0.0000)
  11 Cu     4.206367    3.774516   14.280859    ( 0.0000,  0.0000,  0.0000)
  12 Cu     2.894063   -0.005794   16.419171    ( 0.0000,  0.0000,  0.0000)
  13 Cu     4.204436    2.268961   16.415251    ( 0.0000,  0.0000,  0.0000)
  14 Cu     0.279735   -0.007372   16.411991    ( 0.0000,  0.0000,  0.0000)
  15 Cu     1.582095    2.263682   16.411231    ( 0.0000,  0.0000,  0.0000)
  16 Cu     2.888384    3.022672   18.576148    ( 0.0000,  0.0000,  0.0000)
  17 Cu     1.594804    0.746831   18.557842    ( 0.0000,  0.0000,  0.0000)
  18 Cu     5.510739    3.036617   18.554788    ( 0.0000,  0.0000,  0.0000)
  19 Cu     4.191897    0.760738   18.535219    ( 0.0000,  0.0000,  0.0000)
  20 Cu     5.540712    1.512318   20.602183    ( 0.0000,  0.0000,  0.0000)
  21 Cu     6.819191    3.772408   20.760451    ( 0.0000,  0.0000,  0.0000)
  22 Cu     2.886040    1.500041   20.756788    ( 0.0000,  0.0000,  0.0000)
  23 Cu     4.201049    3.765449   20.774500    ( 0.0000,  0.0000,  0.0000)
  24 Cu     5.480165    4.531724   10.082422    ( 0.0000,  0.0000,  0.0000)
  25 Cu     2.917638    4.546073   10.070797    ( 0.0000,  0.0000,  0.0000)
  26 Cu     4.199876    5.289765   12.189854    ( 0.0000,  0.0000,  0.0000)
  27 Cu     6.828766    5.283103   12.149414    ( 0.0000,  0.0000,  0.0000)
  28 Cu     8.126705    6.049628   14.265248    ( 0.0000,  0.0000,  0.0000)
  29 Cu     5.515239    6.046430   14.284929    ( 0.0000,  0.0000,  0.0000)
  30 Cu     5.511705    4.536520   16.424587    ( 0.0000,  0.0000,  0.0000)
  31 Cu     2.898073    4.533691   16.415160    ( 0.0000,  0.0000,  0.0000)
  32 Cu     4.215786    5.277725   18.574739    ( 0.0000,  0.0000,  0.0000)
  33 Cu     6.817072    5.288302   18.591230    ( 0.0000,  0.0000,  0.0000)
  34 Cu     8.164390    6.077428   20.680633    ( 0.0000,  0.0000,  0.0000)
  35 Cu     5.502426    6.041013   20.781568    ( 0.0000,  0.0000,  0.0000)
  36 Cu     5.518363    0.002832    9.903683    ( 0.0000,  0.0000,  0.0000)
  37 Cu     6.819887    2.278368    9.910637    ( 0.0000,  0.0000,  0.0000)
  38 Cu     8.132385    3.021176   12.108587    ( 0.0000,  0.0000,  0.0000)
  39 Cu     6.805062    0.766059   12.109732    ( 0.0000,  0.0000,  0.0000)
  40 Cu     8.122625    1.510195   14.269150    ( 0.0000,  0.0000,  0.0000)
  41 Cu     9.438580    3.780145   14.273273    ( 0.0000,  0.0000,  0.0000)
  42 Cu     5.505597   -0.002576   16.399496    ( 0.0000,  0.0000,  0.0000)
  43 Cu     6.814417    2.269318   16.403589    ( 0.0000,  0.0000,  0.0000)
  44 Cu     8.129529    3.038361   18.553299    ( 0.0000,  0.0000,  0.0000)
  45 Cu     6.820995    0.754053   18.494528    ( 0.0000,  0.0000,  0.0000)
  46 Cu     8.103559    1.498008   20.614181    ( 0.0000,  0.0000,  0.0000)
  47 Cu     9.421426    3.790533   20.773793    ( 0.0000,  0.0000,  0.0000)
  48 Cu     8.134949    4.543756    9.928358    ( 0.0000,  0.0000,  0.0000)
  49 Cu     9.426040    5.296945   12.126911    ( 0.0000,  0.0000,  0.0000)
  50 Cu    10.741054    6.051292   14.272293    ( 0.0000,  0.0000,  0.0000)
  51 Cu     8.118779    4.535207   16.408506    ( 0.0000,  0.0000,  0.0000)
  52 Cu     9.436005    5.282559   18.535625    ( 0.0000,  0.0000,  0.0000)
  53 Cu    10.751392    6.066814   20.623596    ( 0.0000,  0.0000,  0.0000)
  54 Cl     4.616078    1.893667   23.165510    ( 0.0000,  0.0000,  0.0000)
  55 Cl     6.404868    4.150343    7.519758    ( 0.0000,  0.0000,  0.0000)
  56 Cl    10.748719    5.003559   23.173711    ( 0.0000,  0.0000,  0.0000)
  57 Cl     0.273072    1.039229    7.511585    ( 0.0000,  0.0000,  0.0000)
  58 Cl     9.839848    4.032183    7.526380    ( 0.0000,  0.0000,  0.0000)
  59 Cl     1.183158    2.011987   23.158988    ( 0.0000,  0.0000,  0.0000)
  60 Cl     7.129498    5.392401   23.171892    ( 0.0000,  0.0000,  0.0000)
  61 Cl     3.891245    0.651825    7.513698    ( 0.0000,  0.0000,  0.0000)

Unit cell:
           periodic     x           y           z      points  spacing
  1. axis:    yes    7.851007    0.000000    0.000000    45     0.1511
  2. axis:    yes    3.925503    6.799171    0.000000    45     0.1511
  3. axis:    yes    0.000000    0.000000   30.683867   175     0.1753

  Lengths:   7.851007   7.851006  30.683867
  Angles:   90.000000  90.000000  60.000001

Effective grid spacing dv^(1/3) = 0.1666

     iter     time        total  log10-change:
                         energy  eigst   dens
iter:   1 22:03:53 -4711.560882
iter:   2 22:04:43 -4732.685459  +1.11  -0.76
iter:   3 22:05:34 -4550.649554  +0.77  -0.82
iter:   4 22:06:24 -4419.631349  -0.82  -0.99
iter:   5 22:07:10 -4386.329231  -1.02  -1.37
iter:   6 22:07:56 -4391.457156  -1.75  -1.46
iter:   7 22:08:43 -4380.576116  -2.29  -1.40
iter:   8 22:09:29 -4380.376883  -2.69  -1.57
iter:   9 22:10:23 -4384.024564  -2.06  -1.62
iter:  10 22:11:09 -4382.846677  -2.70  -1.56
iter:  11 22:11:56 -4382.109035  -2.35  -1.63
iter:  12 22:12:49 -4380.558153  -2.56  -1.61
iter:  13 22:13:39 -4380.315858  -2.40  -1.83
iter:  14 22:14:25 -4381.156660  -3.38  -2.01
iter:  15 22:15:23 -4380.528776  -4.17  -1.93
iter:  16 22:16:19 -4379.168835  -2.87  -1.99
iter:  17 22:17:05 -4378.743033  -2.96  -2.15
iter:  18 22:17:52 -4378.852033  -3.51  -2.37
iter:  19 22:18:52 -4378.780131c -3.63  -2.39
iter:  20 22:19:39 -4378.837366c -3.61  -2.51
iter:  21 22:20:25 -4378.716173c -3.34  -2.48
iter:  22 22:21:12 -4378.699774c -4.12  -2.60
iter:  23 22:21:58 -4378.665206c -4.47  -2.72
iter:  24 22:22:55 -4378.629991c -4.38  -2.82
iter:  25 22:23:54 -4378.637260c -4.85  -3.14
iter:  26 22:24:40 -4378.632320c -4.85  -3.11
iter:  27 22:25:25 -4378.630511c -5.44  -3.22
iter:  28 22:26:11 -4378.633833c -5.10  -3.24
iter:  29 22:27:07 -4378.631024c -6.09  -3.46
iter:  30 22:27:54 -4378.629653c -5.98  -3.60
iter:  31 22:28:46 -4378.630224c -6.35  -3.76
iter:  32 22:29:46 -4378.630354c -6.12  -3.84
iter:  33 22:30:39 -4378.629691c -6.57  -4.10c
iter:  34 22:31:27 -4378.629929c -7.24  -4.23c
iter:  35 22:32:22 -4378.630098c -7.01  -4.25c
iter:  36 22:33:28 -4378.630037c -7.49c -4.42c

Converged after 36 iterations.

Dipole moment: (14.961140, -4.004032, -0.000711) |e|*Ang

Energy contributions relative to reference atoms: (reference = -2531597.994586)

Kinetic:       +391.705194
Potential:     -441.126836
External:        +0.000000
XC:            -4328.135373
Entropy (-ST):   -0.673602
Local:           -0.736221
--------------------------
Free energy:   -4378.966838
Extrapolated:  -4378.630037

Showing only first 2 kpts
 Kpt  Band  Eigenvalues  Occupancy
  0   323     -0.65800    0.99278
  0   324     -0.59916    0.70735
  0   325     -0.54189    0.47169
  0   326     -0.51311    0.37590

  1   323     -0.95898    1.90472
  1   324     -0.92924    1.87381
  1   325     -0.87121    1.78521
  1   326     -0.83102    1.69514


Fermi level: -0.65945

No gap

Forces in eV/Ang:
  0 Cu    0.31709    0.21407   -0.80008
  1 Cu   -0.03764   -0.26594   -0.47475
  2 Cu   -0.02163    0.36222   -0.92088
  3 Cu   -0.10577    0.05816   -0.65407
  4 Cu    0.00944   -0.02717   -0.16211
  5 Cu    0.06353    0.01223   -0.18760
  6 Cu   -0.01385   -0.03864   -0.16335
  7 Cu   -0.01089   -0.00865   -0.06692
  8 Cu   -0.00554    0.00947   -0.00992
  9 Cu    0.01412    0.00179   -0.02991
 10 Cu   -0.01026    0.01239    0.00167
 11 Cu   -0.00726   -0.00065    0.00767
 12 Cu   -0.01467    0.00450   -0.00956
 13 Cu   -0.01472   -0.00146    0.03183
 14 Cu   -0.00531    0.00970    0.01443
 15 Cu    0.00165    0.00332    0.03659
 16 Cu    0.00015   -0.01092    0.18245
 17 Cu    0.03746   -0.01761    0.15851
 18 Cu    0.01397    0.03819    0.16336
 19 Cu   -0.02487   -0.03743    0.16232
 20 Cu   -0.33832    0.14265    0.99090
 21 Cu    0.03768    0.26531    0.47393
 22 Cu    0.02291    0.09544    0.69253
 23 Cu   -0.06939    0.02400    0.60755
 24 Cu    0.34000   -0.14406   -0.99250
 25 Cu   -0.34620   -0.18636   -0.94758
 26 Cu    0.01066   -0.00440   -0.22723
 27 Cu    0.02557    0.03742   -0.16213
 28 Cu    0.01458   -0.00452    0.01164
 29 Cu   -0.00393   -0.00483    0.01270
 30 Cu    0.00536   -0.00929    0.01248
 31 Cu   -0.01452   -0.00960    0.05813
 32 Cu    0.03826   -0.00066    0.12297
 33 Cu    0.01103    0.00861    0.06718
 34 Cu   -0.31662   -0.21364    0.79915
 35 Cu    0.21953   -0.08614    0.42453
 36 Cu   -0.21974    0.08636   -0.42512
 37 Cu    0.06898   -0.02357   -0.60793
 38 Cu   -0.00021    0.01091   -0.18262
 39 Cu   -0.03860    0.00099   -0.12241
 40 Cu    0.01469    0.00929   -0.05577
 41 Cu   -0.00139   -0.00314   -0.03465
 42 Cu    0.00324    0.00464   -0.01103
 43 Cu    0.00711    0.00102   -0.00608
 44 Cu   -0.00965    0.02677    0.16214
 45 Cu   -0.01082    0.00466    0.22830
 46 Cu    0.34382    0.18489    0.94484
 47 Cu    0.10615   -0.05875    0.65353
 48 Cu   -0.02354   -0.09496   -0.69260
 49 Cu   -0.03796    0.01792   -0.15857
 50 Cu    0.00541   -0.01016   -0.01233
 51 Cu    0.01003   -0.01238   -0.00002
 52 Cu   -0.06357   -0.01163    0.18772
 53 Cu    0.02166   -0.35976    0.91854
 54 Cl    0.39898    0.03968   -1.95354
 55 Cl   -0.40100   -0.03953    1.95948
 56 Cl    0.20851    0.33226   -1.97602
 57 Cl   -0.20995   -0.33414    1.98101
 58 Cl    0.36888    0.22451    1.97482
 59 Cl   -0.36699   -0.22290   -1.96994
 60 Cl   -0.30100   -0.15959   -2.03770
 61 Cl    0.30333    0.15988    2.04014

System changes: positions 

Initializing position-dependent things.

Density initialized from wave functions
                                              
                                              
                                              
                                              
                           Cl       Cl        
                                              
           Cl      Cl   Cu    Cu              
                                     Cu       
                   Cu     Cu    Cu            
               Cu    Cu     Cu                
                    Cu     Cu    Cu           
               Cu     Cu     Cu               
           Cu    Cu     Cu                    
                Cu     Cu    Cu               
            Cu    Cu     Cu                   
       Cu     Cu    Cu  Cu    Cu     Cu       
                   Cu     Cu    Cu            
               Cu    Cu     Cu                
                    Cu     Cu    Cu           
               Cu     Cu     Cu               
           Cu    Cu     Cu                    
                Cu     Cu    Cu               
            Cu    Cu     Cu                   
       Cu                                     
              Cu    Cu   Cl      Cl           
                                              
        Cl       Cl                           
                                              
                                              
                                              
                                              

Positions:
   0 Cu     2.887111   -0.012852    9.927093    ( 0.0000,  0.0000,  0.0000)
   1 Cu     4.197981    2.245899    9.878809    ( 0.0000,  0.0000,  0.0000)
   2 Cu     0.267464    0.011858    9.972126    ( 0.0000,  0.0000,  0.0000)
   3 Cu     1.589202    2.259081    9.848210    ( 0.0000,  0.0000,  0.0000)
   4 Cu     2.892152    3.002958   12.115823    ( 0.0000,  0.0000,  0.0000)
   5 Cu     1.590886    0.762396   12.130928    ( 0.0000,  0.0000,  0.0000)
   6 Cu     5.508666    3.003611   12.114003    ( 0.0000,  0.0000,  0.0000)
   7 Cu     4.202593    0.754745   12.087095    ( 0.0000,  0.0000,  0.0000)
   8 Cu     5.508547    1.508217   14.258684    ( 0.0000,  0.0000,  0.0000)
   9 Cu     6.817758    3.775002   14.266269    ( 0.0000,  0.0000,  0.0000)
  10 Cu     2.900972    1.509857   14.276179    ( 0.0000,  0.0000,  0.0000)
  11 Cu     4.205666    3.774454   14.281601    ( 0.0000,  0.0000,  0.0000)
  12 Cu     2.892645   -0.005359   16.418246    ( 0.0000,  0.0000,  0.0000)
  13 Cu     4.203013    2.268820   16.418328    ( 0.0000,  0.0000,  0.0000)
  14 Cu     0.279221   -0.006434   16.413386    ( 0.0000,  0.0000,  0.0000)
  15 Cu     1.582255    2.264002   16.414769    ( 0.0000,  0.0000,  0.0000)
  16 Cu     2.888398    3.021616   18.593787    ( 0.0000,  0.0000,  0.0000)
  17 Cu     1.598426    0.745128   18.573166    ( 0.0000,  0.0000,  0.0000)
  18 Cu     5.512089    3.040309   18.570581    ( 0.0000,  0.0000,  0.0000)
  19 Cu     4.189493    0.757120   18.550911    ( 0.0000,  0.0000,  0.0000)
  20 Cu     5.508005    1.526109   20.697980    ( 0.0000,  0.0000,  0.0000)
  21 Cu     6.822833    3.798058   20.806269    ( 0.0000,  0.0000,  0.0000)
  22 Cu     2.888255    1.509268   20.823739    ( 0.0000,  0.0000,  0.0000)
  23 Cu     4.194341    3.767769   20.833236    ( 0.0000,  0.0000,  0.0000)
  24 Cu     5.513035    4.517797    9.986470    ( 0.0000,  0.0000,  0.0000)
  25 Cu     2.884168    4.528057    9.979188    ( 0.0000,  0.0000,  0.0000)
  26 Cu     4.200906    5.289340   12.167886    ( 0.0000,  0.0000,  0.0000)
  27 Cu     6.831238    5.286720   12.133740    ( 0.0000,  0.0000,  0.0000)
  28 Cu     8.128114    6.049191   14.266373    ( 0.0000,  0.0000,  0.0000)
  29 Cu     5.514859    6.045963   14.286157    ( 0.0000,  0.0000,  0.0000)
  30 Cu     5.512223    4.535622   16.425793    ( 0.0000,  0.0000,  0.0000)
  31 Cu     2.896669    4.532763   16.420780    ( 0.0000,  0.0000,  0.0000)
  32 Cu     4.219485    5.277661   18.586627    ( 0.0000,  0.0000,  0.0000)
  33 Cu     6.818139    5.289135   18.597724    ( 0.0000,  0.0000,  0.0000)
  34 Cu     8.133781    6.056774   20.757892    ( 0.0000,  0.0000,  0.0000)
  35 Cu     5.523650    6.032685   20.822611    ( 0.0000,  0.0000,  0.0000)
  36 Cu     5.497120    0.011181    9.862584    ( 0.0000,  0.0000,  0.0000)
  37 Cu     6.826556    2.276089    9.851864    ( 0.0000,  0.0000,  0.0000)
  38 Cu     8.132364    3.022231   12.090932    ( 0.0000,  0.0000,  0.0000)
  39 Cu     6.801330    0.766155   12.097898    ( 0.0000,  0.0000,  0.0000)
  40 Cu     8.124045    1.511093   14.263759    ( 0.0000,  0.0000,  0.0000)
  41 Cu     9.438446    3.779842   14.269924    ( 0.0000,  0.0000,  0.0000)
  42 Cu     5.505910   -0.002128   16.398429    ( 0.0000,  0.0000,  0.0000)
  43 Cu     6.815104    2.269417   16.403001    ( 0.0000,  0.0000,  0.0000)
  44 Cu     8.128596    3.040949   18.568974    ( 0.0000,  0.0000,  0.0000)
  45 Cu     6.819949    0.754503   18.516600    ( 0.0000,  0.0000,  0.0000)
  46 Cu     8.136798    1.515883   20.705525    ( 0.0000,  0.0000,  0.0000)
  47 Cu     9.431688    3.784853   20.836974    ( 0.0000,  0.0000,  0.0000)
  48 Cu     8.132673    4.534575    9.861400    ( 0.0000,  0.0000,  0.0000)
  49 Cu     9.422370    5.298678   12.111581    ( 0.0000,  0.0000,  0.0000)
  50 Cu    10.741577    6.050310   14.271101    ( 0.0000,  0.0000,  0.0000)
  51 Cu     8.119749    4.534011   16.408504    ( 0.0000,  0.0000,  0.0000)
  52 Cu     9.429859    5.281434   18.553773    ( 0.0000,  0.0000,  0.0000)
  53 Cu    10.753486    6.032034   20.712397    ( 0.0000,  0.0000,  0.0000)
  54 Cl     4.654650    1.897503   22.976648    ( 0.0000,  0.0000,  0.0000)
  55 Cl     6.366101    4.146522    7.709194    ( 0.0000,  0.0000,  0.0000)
  56 Cl    10.768877    5.035681   22.982676    ( 0.0000,  0.0000,  0.0000)
  57 Cl     0.252775    1.006925    7.703102    ( 0.0000,  0.0000,  0.0000)
  58 Cl     9.875510    4.053888    7.717299    ( 0.0000,  0.0000,  0.0000)
  59 Cl     1.147679    1.990438   22.968540    ( 0.0000,  0.0000,  0.0000)
  60 Cl     7.100398    5.376972   22.974894    ( 0.0000,  0.0000,  0.0000)
  61 Cl     3.920570    0.667281    7.710932    ( 0.0000,  0.0000,  0.0000)

Unit cell:
           periodic     x           y           z      points  spacing
  1. axis:    yes    7.851007    0.000000    0.000000    45     0.1511
  2. axis:    yes    3.925503    6.799171    0.000000    45     0.1511
  3. axis:    yes    0.000000    0.000000   30.683867   175     0.1753

  Lengths:   7.851007   7.851006  30.683867
  Angles:   90.000000  90.000000  60.000001

Effective grid spacing dv^(1/3) = 0.1666

     iter     time        total  log10-change:
                         energy  eigst   dens
iter:   1 22:34:51 -4587.075784  -0.53
iter:   2 22:35:37 -4548.179374  +0.52  -0.90
iter:   3 22:36:24 -4438.021041  +0.15  -1.03
iter:   4 22:37:12 -4407.148163  -1.41  -1.42
iter:   5 22:37:59 -4395.339190  -1.61  -1.61
iter:   6 22:38:47 -4385.718349  -2.11  -1.73
iter:   7 22:39:35 -4385.012355  -2.87  -1.86
iter:   8 22:40:23 -4401.018944  -1.74  -1.93
iter:   9 22:41:11 -4384.057600  -2.39  -1.56
iter:  10 22:42:00 -4382.880998  -2.46  -2.22
iter:  11 22:42:52 -4382.844383  -3.64  -2.43
iter:  12 22:43:39 -4382.715585c -3.54  -2.46
iter:  13 22:44:36 -4382.757502c -3.78  -2.63
iter:  14 22:45:37 -4382.646827c -3.33  -2.62
iter:  15 22:46:28 -4382.640210c -4.31  -2.76
iter:  16 22:47:15 -4382.629229c -3.98  -2.84
iter:  17 22:48:16 -4382.624666c -4.85  -3.11
iter:  18 22:49:18 -4382.625852c -4.60  -3.22
iter:  19 22:50:13 -4382.623758c -4.60  -3.25
iter:  20 22:51:14 -4382.623926c -5.23  -3.54
iter:  21 22:52:03 -4382.622853c -5.21  -3.66
iter:  22 22:53:03 -4382.622466c -5.87  -3.75
iter:  23 22:53:52 -4382.622457c -5.96  -3.85
iter:  24 22:54:39 -4382.622362c -6.39  -3.93
iter:  25 22:55:25 -4382.622298c -6.37  -4.05c
iter:  26 22:56:26 -4382.622284c -6.95  -4.23c
iter:  27 22:57:23 -4382.622209c -6.69  -4.35c
iter:  28 22:58:20 -4382.622214c -7.72c -4.63c

Converged after 28 iterations.

Dipole moment: (16.471936, -6.622663, -0.001736) |e|*Ang

Energy contributions relative to reference atoms: (reference = -2531597.994586)

Kinetic:       +401.354362
Potential:     -449.882103
External:        +0.000000
XC:            -4332.996047
Entropy (-ST):   -0.522914
Local:           -0.836969
--------------------------
Free energy:   -4382.883671
Extrapolated:  -4382.622214

Showing only first 2 kpts
 Kpt  Band  Eigenvalues  Occupancy
  0   323     -0.24794    0.91156
  0   324     -0.19755    0.67196
  0   325     -0.13620    0.43007
  0   326     -0.09629    0.31052

  1   323     -0.77555    1.98787
  1   324     -0.71091    1.97697
  1   325     -0.50364    1.83052
  1   326     -0.42751    1.66912


Fermi level: -0.26568

No gap

Forces in eV/Ang:
  0 Cu    0.09344    0.07446   -0.38576
  1 Cu   -0.00317   -0.06492   -0.21654
  2 Cu   -0.01319    0.06571   -0.49281
  3 Cu   -0.03817    0.02210   -0.35687
  4 Cu    0.01179    0.03308   -0.24618
  5 Cu    0.01897   -0.03506   -0.29074
  6 Cu   -0.01437    0.03602   -0.26573
  7 Cu   -0.02028   -0.01249   -0.09782
  8 Cu    0.00059    0.01133   -0.03658
  9 Cu    0.00214    0.00636   -0.07172
 10 Cu   -0.00997    0.00915   -0.02982
 11 Cu   -0.00405    0.01101   -0.04605
 12 Cu   -0.00604    0.00551    0.02779
 13 Cu   -0.00243   -0.00600    0.07004
 14 Cu   -0.01492    0.01355    0.05813
 15 Cu   -0.00692   -0.00036    0.05887
 16 Cu    0.00545   -0.00655    0.21584
 17 Cu   -0.01931    0.01394    0.24558
 18 Cu    0.01454   -0.03585    0.26667
 19 Cu    0.03232   -0.03021    0.28509
 20 Cu   -0.06926    0.02366    0.53901
 21 Cu    0.00325    0.06537    0.21750
 22 Cu    0.02657    0.02317    0.39369
 23 Cu    0.01986    0.04488    0.34976
 24 Cu    0.06799   -0.02314   -0.53526
 25 Cu   -0.06396   -0.03533   -0.50514
 26 Cu    0.01043   -0.00925   -0.46767
 27 Cu   -0.03240    0.02997   -0.28425
 28 Cu    0.00579   -0.00568   -0.02930
 29 Cu   -0.00937   -0.00671   -0.05581
 30 Cu   -0.00053   -0.01095    0.03527
 31 Cu   -0.01192    0.00113    0.07971
 32 Cu   -0.02043    0.03167    0.22427
 33 Cu    0.01998    0.01239    0.09919
 34 Cu   -0.09442   -0.07500    0.38768
 35 Cu    0.05803   -0.01723    0.17699
 36 Cu   -0.05740    0.01703   -0.17581
 37 Cu   -0.01956   -0.04436   -0.34778
 38 Cu   -0.00549    0.00657   -0.21459
 39 Cu    0.02073   -0.03153   -0.22315
 40 Cu    0.01211   -0.00120   -0.08118
 41 Cu    0.00710    0.00050   -0.06039
 42 Cu    0.00918    0.00668    0.05417
 43 Cu    0.00402   -0.01066    0.04434
 44 Cu   -0.01229   -0.03301    0.24692
 45 Cu   -0.01066    0.00935    0.46796
 46 Cu    0.06473    0.03576    0.50816
 47 Cu    0.03769   -0.02216    0.35898
 48 Cu   -0.02702   -0.02348   -0.39123
 49 Cu    0.01916   -0.01433   -0.24486
 50 Cu    0.01512   -0.01387   -0.05966
 51 Cu    0.00971   -0.00910    0.02825
 52 Cu   -0.01937    0.03527    0.29144
 53 Cu    0.01317   -0.06666    0.49572
 54 Cl    0.31607    0.03719   -1.52078
 55 Cl   -0.31348   -0.03889    1.52047
 56 Cl    0.16314    0.26120   -1.54136
 57 Cl   -0.16410   -0.25829    1.54096
 58 Cl    0.27781    0.16804    1.50843
 59 Cl   -0.28125   -0.16914   -1.50960
 60 Cl   -0.28992   -0.15357   -1.56642
 61 Cl    0.29130    0.15325    1.56690

System changes: positions 

Initializing position-dependent things.

Density initialized from wave functions
                                              
                                              
                                              
                                              
                           Cl       Cl        
                                              
          Cl       Cl   Cu    Cu     Cu       
                   Cu     Cu    Cu            
                                              
               Cu   CCu    CCu   Cu           
                                              
                Cu    Cu    Cu                
           Cu   CCu    CCu   Cu               
                                              
            Cu    Cu    CCu   Cu     Cu       
       Cu     Cu   CCu    Cu    Cu            
                                              
               Cu   CCu    CCu   Cu           
                Cu    Cu    Cu                
                                              
           Cu   CCu    CCu   Cu               
                                              
            Cu    Cu     Cu                   
       Cu     Cu    Cu   Cl       Cl          
                                              
        Cl       Cl                           
                                              
                                              
                                              
                                              

Positions:
   0 Cu     2.917766    0.007844    9.849744    ( 0.0000,  0.0000,  0.0000)
   1 Cu     4.194342    2.220189    9.832912    ( 0.0000,  0.0000,  0.0000)
   2 Cu     0.265373    0.046877    9.883098    ( 0.0000,  0.0000,  0.0000)
   3 Cu     1.578977    2.264703    9.784977    ( 0.0000,  0.0000,  0.0000)
   4 Cu     2.893065    3.000332   12.100151    ( 0.0000,  0.0000,  0.0000)
   5 Cu     1.597028    0.763578   12.112791    ( 0.0000,  0.0000,  0.0000)
   6 Cu     5.507328    2.999875   12.098211    ( 0.0000,  0.0000,  0.0000)
   7 Cu     4.201540    0.753909   12.080626    ( 0.0000,  0.0000,  0.0000)
   8 Cu     5.508011    1.509132   14.257724    ( 0.0000,  0.0000,  0.0000)
   9 Cu     6.819123    3.775174   14.263378    ( 0.0000,  0.0000,  0.0000)
  10 Cu     2.899980    1.511054   14.276341    ( 0.0000,  0.0000,  0.0000)
  11 Cu     4.204964    3.774391   14.282342    ( 0.0000,  0.0000,  0.0000)
  12 Cu     2.891226   -0.004924   16.417322    ( 0.0000,  0.0000,  0.0000)
  13 Cu     4.201589    2.268679   16.421405    ( 0.0000,  0.0000,  0.0000)
  14 Cu     0.278707   -0.005496   16.414781    ( 0.0000,  0.0000,  0.0000)
  15 Cu     1.582415    2.264323   16.418306    ( 0.0000,  0.0000,  0.0000)
  16 Cu     2.888412    3.020560   18.611426    ( 0.0000,  0.0000,  0.0000)
  17 Cu     1.602047    0.743426   18.588490    ( 0.0000,  0.0000,  0.0000)
  18 Cu     5.513440    3.044001   18.586374    ( 0.0000,  0.0000,  0.0000)
  19 Cu     4.187088    0.753501   18.566604    ( 0.0000,  0.0000,  0.0000)
  20 Cu     5.475297    1.539900   20.793777    ( 0.0000,  0.0000,  0.0000)
  21 Cu     6.826476    3.823707   20.852086    ( 0.0000,  0.0000,  0.0000)
  22 Cu     2.890469    1.518495   20.890691    ( 0.0000,  0.0000,  0.0000)
  23 Cu     4.187632    3.770090   20.891971    ( 0.0000,  0.0000,  0.0000)
  24 Cu     5.545905    4.503870    9.890518    ( 0.0000,  0.0000,  0.0000)
  25 Cu     2.850699    4.510041    9.887579    ( 0.0000,  0.0000,  0.0000)
  26 Cu     4.201936    5.288914   12.145918    ( 0.0000,  0.0000,  0.0000)
  27 Cu     6.833711    5.290337   12.118066    ( 0.0000,  0.0000,  0.0000)
  28 Cu     8.129523    6.048754   14.267498    ( 0.0000,  0.0000,  0.0000)
  29 Cu     5.514480    6.045496   14.287385    ( 0.0000,  0.0000,  0.0000)
  30 Cu     5.512741    4.534723   16.426999    ( 0.0000,  0.0000,  0.0000)
  31 Cu     2.895265    4.531836   16.426400    ( 0.0000,  0.0000,  0.0000)
  32 Cu     4.223184    5.277597   18.598516    ( 0.0000,  0.0000,  0.0000)
  33 Cu     6.819205    5.289968   18.604219    ( 0.0000,  0.0000,  0.0000)
  34 Cu     8.103171    6.036121   20.835152    ( 0.0000,  0.0000,  0.0000)
  35 Cu     5.544874    6.024357   20.863653    ( 0.0000,  0.0000,  0.0000)
  36 Cu     5.475876    0.019529    9.821485    ( 0.0000,  0.0000,  0.0000)
  37 Cu     6.833225    2.273810    9.793091    ( 0.0000,  0.0000,  0.0000)
  38 Cu     8.132344    3.023286   12.073277    ( 0.0000,  0.0000,  0.0000)
  39 Cu     6.797598    0.766251   12.086064    ( 0.0000,  0.0000,  0.0000)
  40 Cu     8.125466    1.511991   14.258367    ( 0.0000,  0.0000,  0.0000)
  41 Cu     9.438312    3.779539   14.266574    ( 0.0000,  0.0000,  0.0000)
  42 Cu     5.506223   -0.001679   16.397363    ( 0.0000,  0.0000,  0.0000)
  43 Cu     6.815791    2.269515   16.402413    ( 0.0000,  0.0000,  0.0000)
  44 Cu     8.127663    3.043538   18.584649    ( 0.0000,  0.0000,  0.0000)
  45 Cu     6.818904    0.754953   18.538671    ( 0.0000,  0.0000,  0.0000)
  46 Cu     8.170037    1.533757   20.796870    ( 0.0000,  0.0000,  0.0000)
  47 Cu     9.441951    3.779174   20.900155    ( 0.0000,  0.0000,  0.0000)
  48 Cu     8.130398    4.525394    9.794441    ( 0.0000,  0.0000,  0.0000)
  49 Cu     9.418700    5.300411   12.096251    ( 0.0000,  0.0000,  0.0000)
  50 Cu    10.742100    6.049328   14.269909    ( 0.0000,  0.0000,  0.0000)
  51 Cu     8.120718    4.532814   16.408503    ( 0.0000,  0.0000,  0.0000)
  52 Cu     9.423713    5.280310   18.571920    ( 0.0000,  0.0000,  0.0000)
  53 Cu    10.755581    5.997254   20.801198    ( 0.0000,  0.0000,  0.0000)
  54 Cl     4.693222    1.901339   22.787787    ( 0.0000,  0.0000,  0.0000)
  55 Cl     6.327333    4.142700    7.898630    ( 0.0000,  0.0000,  0.0000)
  56 Cl    10.789035    5.067802   22.791641    ( 0.0000,  0.0000,  0.0000)
  57 Cl     0.232478    0.974621    7.894620    ( 0.0000,  0.0000,  0.0000)
  58 Cl     9.911173    4.075593    7.908217    ( 0.0000,  0.0000,  0.0000)
  59 Cl     1.112199    1.968889   22.778092    ( 0.0000,  0.0000,  0.0000)
  60 Cl     7.071298    5.361544   22.777896    ( 0.0000,  0.0000,  0.0000)
  61 Cl     3.949896    0.682738    7.908165    ( 0.0000,  0.0000,  0.0000)

Unit cell:
           periodic     x           y           z      points  spacing
  1. axis:    yes    7.851007    0.000000    0.000000    45     0.1511
  2. axis:    yes    3.925503    6.799171    0.000000    45     0.1511
  3. axis:    yes    0.000000    0.000000   30.683867   175     0.1753

  Lengths:   7.851007   7.851006  30.683867
  Angles:   90.000000  90.000000  60.000001

Effective grid spacing dv^(1/3) = 0.1666

     iter     time        total  log10-change:
                         energy  eigst   dens
iter:   1 22:59:32 -4558.977898  -0.50
iter:   2 23:00:19 -4500.705947  +0.37  -0.94
iter:   3 23:01:05 -4419.813727  -0.12  -1.10
iter:   4 23:01:52 -4396.654555  -1.67  -1.50
iter:   5 23:02:38 -4389.560584  -2.00  -1.79
iter:   6 23:03:24 -4385.997450  -2.64  -1.91
iter:   7 23:04:17 -4385.512474  -3.10  -2.01
iter:   8 23:05:14 -4386.461493  -1.75  -2.08
iter:   9 23:06:01 -4384.708699  -3.18  -2.11
iter:  10 23:06:48 -4384.435341  -3.33  -2.30
iter:  11 23:07:39 -4384.102593  -2.95  -2.38
iter:  12 23:08:17 -4383.965183  -3.50  -2.64
iter:  13 23:09:12 -4383.948839c -4.23  -2.92
iter:  14 23:09:55 -4383.950953c -4.09  -2.98
iter:  15 23:10:34 -4383.948959c -4.24  -3.04
iter:  16 23:11:17 -4383.945032c -5.43  -3.21
iter:  17 23:12:02 -4383.942053c -4.43  -3.27
iter:  18 23:12:48 -4383.940720c -5.45  -3.51
iter:  19 23:13:35 -4383.940373c -6.07  -3.76
iter:  20 23:14:23 -4383.940401c -6.37  -3.85
iter:  21 23:15:11 -4383.940356c -5.87  -3.89
iter:  22 23:15:59 -4383.940228c -6.54  -4.17c
iter:  23 23:16:48 -4383.940195c -6.90  -4.26c
iter:  24 23:17:35 -4383.940203c -6.73  -4.35c
iter:  25 23:18:22 -4383.940218c -7.26  -4.56c
iter:  26 23:19:15 -4383.940207c -7.31  -4.69c
iter:  27 23:20:01 -4383.940210c -7.82c -4.74c

Converged after 27 iterations.

Dipole moment: (17.904542, -9.239974, -0.003209) |e|*Ang

Energy contributions relative to reference atoms: (reference = -2531597.994586)

Kinetic:       +443.664182
Potential:     -484.348767
External:        +0.000000
XC:            -4342.149028
Entropy (-ST):   -0.509526
Local:           -0.851834
--------------------------
Free energy:   -4384.194972
Extrapolated:  -4383.940210

Showing only first 2 kpts
 Kpt  Band  Eigenvalues  Occupancy
  0   323      0.31267    0.97605
  0   324      0.36167    0.73736
  0   325      0.43239    0.44709
  0   326      0.47877    0.30661

  1   323     -0.23006    1.99082
  1   324     -0.15067    1.97981
  1   325      0.07309    1.82553
  1   326      0.17258    1.58922


Fermi level: 0.30788

No gap

Forces in eV/Ang:
  0 Cu   -0.39922   -0.23547    0.54350
  1 Cu    0.06283    0.30613    0.31002
  2 Cu    0.00669   -0.64337    0.90600
  3 Cu    0.06918   -0.03891    0.19955
  4 Cu    0.01538    0.07825   -0.30125
  5 Cu   -0.01972   -0.07014   -0.35782
  6 Cu   -0.01479    0.08845   -0.33532
  7 Cu   -0.02394   -0.01372   -0.11323
  8 Cu    0.00610    0.01169   -0.05698
  9 Cu   -0.00989    0.01059   -0.10668
 10 Cu   -0.00919    0.00438   -0.05311
 11 Cu   -0.00126    0.02083   -0.08931
 12 Cu    0.00301    0.00582    0.06057
 13 Cu    0.01009   -0.01048    0.10530
 14 Cu   -0.02336    0.01595    0.09789
 15 Cu   -0.01473   -0.00430    0.07779
 16 Cu    0.00887   -0.00183    0.23385
 17 Cu   -0.06451    0.03503    0.30144
 18 Cu    0.01448   -0.08812    0.33559
 19 Cu    0.07452   -0.02156    0.36290
 20 Cu    0.59380   -0.26979   -1.01943
 21 Cu   -0.06227   -0.30427   -0.30751
 22 Cu    0.02981   -0.09093   -0.17311
 23 Cu    0.16971    0.06808   -0.17115
 24 Cu   -0.60276    0.27420    1.03921
 25 Cu    0.60399    0.33268    1.01847
 26 Cu    0.00914   -0.00801   -0.61397
 27 Cu   -0.07525    0.02166   -0.36280
 28 Cu   -0.00323   -0.00579   -0.06211
 29 Cu   -0.01390   -0.00802   -0.11329
 30 Cu   -0.00608   -0.01148    0.05529
 31 Cu   -0.00809    0.01289    0.10103
 32 Cu   -0.06378    0.05577    0.29470
 33 Cu    0.02354    0.01370    0.11297
 34 Cu    0.39631    0.23343   -0.53892
 35 Cu   -0.23268    0.10581   -0.30083
 36 Cu    0.23428   -0.10637    0.30274
 37 Cu   -0.16978   -0.06827    0.17407
 38 Cu   -0.00903    0.00180   -0.23310
 39 Cu    0.06407   -0.05605   -0.29455
 40 Cu    0.00811   -0.01252   -0.10233
 41 Cu    0.01457    0.00425   -0.07901
 42 Cu    0.01437    0.00830    0.11208
 43 Cu    0.00124   -0.02109    0.08825
 44 Cu   -0.01540   -0.07781    0.30101
 45 Cu   -0.00955    0.00791    0.61288
 46 Cu   -0.59526   -0.32735   -0.99594
 47 Cu   -0.06962    0.03906   -0.19660
 48 Cu   -0.02949    0.09100    0.17614
 49 Cu    0.06495   -0.03537   -0.30157
 50 Cu    0.02305   -0.01577   -0.09901
 51 Cu    0.00921   -0.00433    0.05181
 52 Cu    0.01943    0.06967    0.35778
 53 Cu   -0.00674    0.63403   -0.88724
 54 Cl   -0.16904    0.19940    0.36700
 55 Cl    0.17788   -0.20309   -0.38977
 56 Cl    0.10817   -0.19701    0.20826
 57 Cl   -0.10804    0.20650   -0.23032
 58 Cl   -0.19495   -0.10325   -0.39346
 59 Cl    0.18466    0.09783    0.36740
 60 Cl   -0.37678   -0.19572   -0.14900
 61 Cl    0.37732    0.19521    0.13863

System changes: positions 

Initializing position-dependent things.

Density initialized from wave functions
                                              
                                              
                                              
                                              
                           Cl       Cl        
                                              
           Cl      Cl   Cu    Cu     Cu       
                   Cu     Cu    Cu            
                                              
               Cu   CCu    CCu   Cu           
                                              
                Cu    Cu    Cu                
           Cu   CCu    CCu   Cu               
                                              
            Cu    Cu    CCu   Cu     Cu       
       Cu     Cu   CCu    Cu    Cu            
                                              
               Cu   CCu    CCu   Cu           
                Cu    Cu    Cu                
                                              
           Cu   CCu    CCu   Cu               
                                              
            Cu    Cu     Cu                   
       Cu     Cu    Cu   Cl      Cl           
                                              
        Cl       Cl                           
                                              
                                              
                                              
                                              

Positions:
   0 Cu     2.884779   -0.011752    9.896551    ( 0.0000,  0.0000,  0.0000)
   1 Cu     4.199471    2.245602    9.859706    ( 0.0000,  0.0000,  0.0000)
   2 Cu     0.266009   -0.005518    9.958998    ( 0.0000,  0.0000,  0.0000)
   3 Cu     1.584955    2.261348    9.804020    ( 0.0000,  0.0000,  0.0000)
   4 Cu     2.894224    3.006617   12.077326    ( 0.0000,  0.0000,  0.0000)
   5 Cu     1.595152    0.758007   12.085655    ( 0.0000,  0.0000,  0.0000)
   6 Cu     5.506238    3.007021   12.072717    ( 0.0000,  0.0000,  0.0000)
   7 Cu     4.199716    0.752876   12.072077    ( 0.0000,  0.0000,  0.0000)
   8 Cu     5.508519    1.510002   14.253301    ( 0.0000,  0.0000,  0.0000)
   9 Cu     6.818273    3.775997   14.255153    ( 0.0000,  0.0000,  0.0000)
  10 Cu     2.899311    1.511335   14.272161    ( 0.0000,  0.0000,  0.0000)
  11 Cu     4.204903    3.776031   14.275288    ( 0.0000,  0.0000,  0.0000)
  12 Cu     2.891538   -0.004490   16.422128    ( 0.0000,  0.0000,  0.0000)
  13 Cu     4.202457    2.267863   16.429511    ( 0.0000,  0.0000,  0.0000)
  14 Cu     0.276900   -0.004293   16.422395    ( 0.0000,  0.0000,  0.0000)
  15 Cu     1.581249    2.263968   16.424227    ( 0.0000,  0.0000,  0.0000)
  16 Cu     2.889108    3.020473   18.628851    ( 0.0000,  0.0000,  0.0000)
  17 Cu     1.596787    0.746268   18.611347    ( 0.0000,  0.0000,  0.0000)
  18 Cu     5.514505    3.036883   18.611889    ( 0.0000,  0.0000,  0.0000)
  19 Cu     4.193069    0.752001   18.594269    ( 0.0000,  0.0000,  0.0000)
  20 Cu     5.523677    1.517976   20.708607    ( 0.0000,  0.0000,  0.0000)
  21 Cu     6.821391    3.798444   20.825493    ( 0.0000,  0.0000,  0.0000)
  22 Cu     2.892692    1.510862   20.873527    ( 0.0000,  0.0000,  0.0000)
  23 Cu     4.201319    3.775313   20.875399    ( 0.0000,  0.0000,  0.0000)
  24 Cu     5.496813    4.526148    9.977250    ( 0.0000,  0.0000,  0.0000)
  25 Cu     2.899919    4.537129    9.972450    ( 0.0000,  0.0000,  0.0000)
  26 Cu     4.202599    5.288308   12.098869    ( 0.0000,  0.0000,  0.0000)
  27 Cu     6.827669    5.291846   12.090407    ( 0.0000,  0.0000,  0.0000)
  28 Cu     8.129194    6.048323   14.262560    ( 0.0000,  0.0000,  0.0000)
  29 Cu     5.513408    6.044890   14.278423    ( 0.0000,  0.0000,  0.0000)
  30 Cu     5.512236    4.533869   16.431277    ( 0.0000,  0.0000,  0.0000)
  31 Cu     2.894705    4.532898   16.434035    ( 0.0000,  0.0000,  0.0000)
  32 Cu     4.217978    5.281980   18.621028    ( 0.0000,  0.0000,  0.0000)
  33 Cu     6.820997    5.290999   18.612745    ( 0.0000,  0.0000,  0.0000)
  34 Cu     8.135928    6.055555   20.788709    ( 0.0000,  0.0000,  0.0000)
  35 Cu     5.525468    6.033111   20.837839    ( 0.0000,  0.0000,  0.0000)
  36 Cu     5.495408    0.010731    9.847452    ( 0.0000,  0.0000,  0.0000)
  37 Cu     6.819536    2.268570    9.809895    ( 0.0000,  0.0000,  0.0000)
  38 Cu     8.131636    3.023371   12.055911    ( 0.0000,  0.0000,  0.0000)
  39 Cu     6.802828    0.761844   12.063562    ( 0.0000,  0.0000,  0.0000)
  40 Cu     8.126027    1.510960   14.250618    ( 0.0000,  0.0000,  0.0000)
  41 Cu     9.439463    3.779888   14.260547    ( 0.0000,  0.0000,  0.0000)
  42 Cu     5.507335   -0.001051   16.406222    ( 0.0000,  0.0000,  0.0000)
  43 Cu     6.815852    2.267854   16.409376    ( 0.0000,  0.0000,  0.0000)
  44 Cu     8.126503    3.037289   18.607454    ( 0.0000,  0.0000,  0.0000)
  45 Cu     6.818209    0.755550   18.585630    ( 0.0000,  0.0000,  0.0000)
  46 Cu     8.121515    1.507096   20.713782    ( 0.0000,  0.0000,  0.0000)
  47 Cu     9.435936    3.782544   20.881347    ( 0.0000,  0.0000,  0.0000)
  48 Cu     8.128203    4.533030    9.811844    ( 0.0000,  0.0000,  0.0000)
  49 Cu     9.423997    5.297540   12.073383    ( 0.0000,  0.0000,  0.0000)
  50 Cu    10.743882    6.048142   14.262196    ( 0.0000,  0.0000,  0.0000)
  51 Cu     8.121390    4.532538   16.412572    ( 0.0000,  0.0000,  0.0000)
  52 Cu     9.425566    5.285842   18.599053    ( 0.0000,  0.0000,  0.0000)
  53 Cu    10.754940    6.048903   20.726783    ( 0.0000,  0.0000,  0.0000)
  54 Cl     4.677891    1.916795   22.826676    ( 0.0000,  0.0000,  0.0000)
  55 Cl     6.343370    4.126954    7.857922    ( 0.0000,  0.0000,  0.0000)
  56 Cl    10.796456    5.050617   22.818179    ( 0.0000,  0.0000,  0.0000)
  57 Cl     0.225074    0.992561    7.866324    ( 0.0000,  0.0000,  0.0000)
  58 Cl     9.893961    4.066328    7.867141    ( 0.0000,  0.0000,  0.0000)
  59 Cl     1.128592    1.977721   22.817097    ( 0.0000,  0.0000,  0.0000)
  60 Cl     7.043258    5.346994   22.776693    ( 0.0000,  0.0000,  0.0000)
  61 Cl     3.977967    0.697246    7.908542    ( 0.0000,  0.0000,  0.0000)

Unit cell:
           periodic     x           y           z      points  spacing
  1. axis:    yes    7.851007    0.000000    0.000000    45     0.1511
  2. axis:    yes    3.925503    6.799171    0.000000    45     0.1511
  3. axis:    yes    0.000000    0.000000   30.683867   175     0.1753

  Lengths:   7.851007   7.851006  30.683867
  Angles:   90.000000  90.000000  60.000001

Effective grid spacing dv^(1/3) = 0.1666

     iter     time        total  log10-change:
                         energy  eigst   dens
iter:   1 23:21:12 -4389.187421  -1.28
iter:   2 23:22:07 -4386.324282  -2.44  -1.91
iter:   3 23:23:04 -4385.278455  -1.84  -2.05
iter:   4 23:24:08 -4384.990529  -2.77  -2.27
iter:   5 23:25:10 -4384.632515  -3.60  -2.35
iter:   6 23:26:02 -4384.591820  -2.58  -2.50
iter:   7 23:26:47 -4384.480686c -3.66  -2.92
iter:   8 23:27:32 -4384.465734c -3.62  -2.94
iter:   9 23:28:17 -4384.466997c -4.44  -3.04
iter:  10 23:29:16 -4384.464603c -4.49  -3.21
iter:  11 23:30:17 -4384.463517c -4.60  -3.24
iter:  12 23:31:07 -4384.456655c -5.11  -3.24
iter:  13 23:31:53 -4384.456415c -4.87  -3.49
iter:  14 23:32:37 -4384.455893c -6.07  -3.85
iter:  15 23:33:32 -4384.455603c -5.63  -3.93
iter:  16 23:34:17 -4384.455652c -6.50  -4.05c
iter:  17 23:35:16 -4384.455648c -6.95  -4.12c
iter:  18 23:36:05 -4384.455631c -7.61c -4.15c

Converged after 18 iterations.

Dipole moment: (16.045954, -5.822988, 0.001595) |e|*Ang

Energy contributions relative to reference atoms: (reference = -2531597.994586)

Kinetic:       +427.299734
Potential:     -471.125321
External:        +0.000000
XC:            -4339.451426
Entropy (-ST):   -0.515908
Local:           -0.920663
--------------------------
Free energy:   -4384.713585
Extrapolated:  -4384.455631

Showing only first 2 kpts
 Kpt  Band  Eigenvalues  Occupancy
  0   323      0.12528    1.01937
  0   324      0.17580    0.77086
  0   325      0.26474    0.40982
  0   326      0.30171    0.30230

  1   323     -0.41032    1.99096
  1   324     -0.32981    1.97989
  1   325     -0.11056    1.83321
  1   326     -0.01973    1.63180


Fermi level: 0.12915

No gap

Forces in eV/Ang:
  0 Cu   -0.06398   -0.03248    0.10040
  1 Cu    0.00163    0.05603    0.07463
  2 Cu   -0.00711   -0.01657   -0.03817
  3 Cu   -0.00043    0.01584   -0.05593
  4 Cu   -0.01463   -0.02670   -0.11386
  5 Cu    0.01342    0.02562   -0.14157
  6 Cu    0.01493   -0.03273   -0.11921
  7 Cu    0.00465    0.00161   -0.03443
  8 Cu    0.01296    0.01183   -0.05836
  9 Cu   -0.00391    0.00371   -0.09115
 10 Cu   -0.01398    0.00881   -0.05422
 11 Cu   -0.00173    0.02231   -0.08839
 12 Cu   -0.00340    0.01082    0.06210
 13 Cu    0.00356   -0.00366    0.09183
 14 Cu   -0.02357    0.01407    0.09678
 15 Cu   -0.00728   -0.00061    0.06765
 16 Cu    0.00720    0.00088    0.15272
 17 Cu    0.03530    0.00252    0.11977
 18 Cu   -0.01514    0.03163    0.12209
 19 Cu   -0.03099   -0.00684    0.13879
 20 Cu   -0.01400    0.01229    0.11054
 21 Cu   -0.00199   -0.05725   -0.07670
 22 Cu    0.01587   -0.00286    0.09246
 23 Cu    0.04475    0.01473    0.07718
 24 Cu    0.01968   -0.01513   -0.12019
 25 Cu   -0.03116   -0.01340   -0.10160
 26 Cu    0.00013    0.00633   -0.13022
 27 Cu    0.03168    0.00743   -0.13597
 28 Cu    0.00326   -0.01077   -0.06113
 29 Cu   -0.02188   -0.00744   -0.10614
 30 Cu   -0.01319   -0.01191    0.05997
 31 Cu   -0.00642    0.00698    0.08795
 32 Cu    0.01341   -0.01944    0.10841
 33 Cu   -0.00456   -0.00151    0.03629
 34 Cu    0.06569    0.03344   -0.10347
 35 Cu   -0.02684    0.03322   -0.08476
 36 Cu    0.02600   -0.03284    0.08271
 37 Cu   -0.04367   -0.01451   -0.08029
 38 Cu   -0.00719   -0.00083   -0.15104
 39 Cu   -0.01440    0.01991   -0.10580
 40 Cu    0.00618   -0.00715   -0.08686
 41 Cu    0.00724    0.00073   -0.06703
 42 Cu    0.02160    0.00740    0.10731
 43 Cu    0.00149   -0.02228    0.08952
 44 Cu    0.01476    0.02559    0.11655
 45 Cu   -0.00004   -0.00595    0.13659
 46 Cu    0.02414    0.00965    0.09056
 47 Cu   -0.00023   -0.01490    0.05258
 48 Cu   -0.01534    0.00192   -0.09578
 49 Cu   -0.03627   -0.00174   -0.11712
 50 Cu    0.02338   -0.01414   -0.09558
 51 Cu    0.01387   -0.00888    0.05511
 52 Cu   -0.01270   -0.02519    0.14417
 53 Cu    0.00659    0.02300    0.02985
 54 Cl    0.09352    0.06318   -0.63760
 55 Cl   -0.09403   -0.06248    0.64424
 56 Cl    0.08870    0.04675   -0.60499
 57 Cl   -0.08855   -0.04723    0.61033
 58 Cl    0.06893    0.04182    0.63132
 59 Cl   -0.06876   -0.04130   -0.62370
 60 Cl   -0.27677   -0.13473   -0.57889
 61 Cl    0.27624    0.13384    0.58021

System changes: positions 

Initializing position-dependent things.

Density initialized from wave functions
                                              
                                              
                                              
                                              
                           Cl       Cl        
                                              
           Cl      Cl   Cu    Cu     Cu       
                   Cu     Cu    Cu            
                                              
               Cu   CCu    Cu    Cu           
                Cu    Cu    Cu                
                                              
           Cu   CCu    CCu   Cu               
                                              
            Cu    Cu    CCu   Cu     Cu       
       Cu     Cu   CCu    Cu    Cu            
                                              
               Cu   CCu    CCu   Cu           
                                              
                Cu    Cu    Cu                
           Cu    Cu    CCu   Cu               
                                              
            Cu    Cu     Cu                   
       Cu     Cu    Cu   Cl      Cl           
                                              
        Cl       Cl                           
                                              
                                              
                                              
                                              

Positions:
   0 Cu     2.863154   -0.023417    9.919101    ( 0.0000,  0.0000,  0.0000)
   1 Cu     4.202353    2.262334    9.873791    ( 0.0000,  0.0000,  0.0000)
   2 Cu     0.265244   -0.035541    9.986439    ( 0.0000,  0.0000,  0.0000)
   3 Cu     1.586501    2.261911    9.795642    ( 0.0000,  0.0000,  0.0000)
   4 Cu     2.893934    3.007949   12.045996    ( 0.0000,  0.0000,  0.0000)
   5 Cu     1.596696    0.756703   12.047958    ( 0.0000,  0.0000,  0.0000)
   6 Cu     5.506493    3.008113   12.038926    ( 0.0000,  0.0000,  0.0000)
   7 Cu     4.198553    0.752059   12.060953    ( 0.0000,  0.0000,  0.0000)
   8 Cu     5.509957    1.511983   14.244381    ( 0.0000,  0.0000,  0.0000)
   9 Cu     6.817658    3.776984   14.239901    ( 0.0000,  0.0000,  0.0000)
  10 Cu     2.897252    1.512682   14.264105    ( 0.0000,  0.0000,  0.0000)
  11 Cu     4.204509    3.779289   14.262110    ( 0.0000,  0.0000,  0.0000)
  12 Cu     2.891066   -0.003046   16.431172    ( 0.0000,  0.0000,  0.0000)
  13 Cu     4.203037    2.266894   16.444791    ( 0.0000,  0.0000,  0.0000)
  14 Cu     0.273248   -0.001856   16.437335    ( 0.0000,  0.0000,  0.0000)
  15 Cu     1.579768    2.263740   16.435787    ( 0.0000,  0.0000,  0.0000)
  16 Cu     2.890289    3.020211   18.660453    ( 0.0000,  0.0000,  0.0000)
  17 Cu     1.597267    0.748101   18.643162    ( 0.0000,  0.0000,  0.0000)
  18 Cu     5.514215    3.035696   18.645965    ( 0.0000,  0.0000,  0.0000)
  19 Cu     4.193839    0.749311   18.631435    ( 0.0000,  0.0000,  0.0000)
  20 Cu     5.548552    1.506985   20.683066    ( 0.0000,  0.0000,  0.0000)
  21 Cu     6.818507    3.781688   20.811339    ( 0.0000,  0.0000,  0.0000)
  22 Cu     2.896376    1.507547   20.887676    ( 0.0000,  0.0000,  0.0000)
  23 Cu     4.213601    3.781083   20.886350    ( 0.0000,  0.0000,  0.0000)
  24 Cu     5.471999    4.537091   10.002971    ( 0.0000,  0.0000,  0.0000)
  25 Cu     2.923589    4.550615    9.999730    ( 0.0000,  0.0000,  0.0000)
  26 Cu     4.203364    5.288351   12.046840    ( 0.0000,  0.0000,  0.0000)
  27 Cu     6.826939    5.294597   12.053514    ( 0.0000,  0.0000,  0.0000)
  28 Cu     8.129639    6.046884   14.253566    ( 0.0000,  0.0000,  0.0000)
  29 Cu     5.510482    6.043632   14.262331    ( 0.0000,  0.0000,  0.0000)
  30 Cu     5.510773    4.531897   16.440309    ( 0.0000,  0.0000,  0.0000)
  31 Cu     2.893323    4.534071   16.449291    ( 0.0000,  0.0000,  0.0000)
  32 Cu     4.216464    5.283304   18.650612    ( 0.0000,  0.0000,  0.0000)
  33 Cu     6.822148    5.291824   18.624034    ( 0.0000,  0.0000,  0.0000)
  34 Cu     8.157558    6.067204   20.766109    ( 0.0000,  0.0000,  0.0000)
  35 Cu     5.514611    6.040321   20.822216    ( 0.0000,  0.0000,  0.0000)
  36 Cu     5.506273    0.003530    9.862978    ( 0.0000,  0.0000,  0.0000)
  37 Cu     6.807342    2.262819    9.798809    ( 0.0000,  0.0000,  0.0000)
  38 Cu     8.130445    3.023636   12.024505    ( 0.0000,  0.0000,  0.0000)
  39 Cu     6.804258    0.760555   12.034244    ( 0.0000,  0.0000,  0.0000)
  40 Cu     8.127390    1.509785   14.235443    ( 0.0000,  0.0000,  0.0000)
  41 Cu     9.440938    3.780128   14.249019    ( 0.0000,  0.0000,  0.0000)
  42 Cu     5.510246    0.000215   16.422391    ( 0.0000,  0.0000,  0.0000)
  43 Cu     6.816218    2.264592   16.422636    ( 0.0000,  0.0000,  0.0000)
  44 Cu     8.126801    3.035868   18.639024    ( 0.0000,  0.0000,  0.0000)
  45 Cu     6.817425    0.755544   18.638218    ( 0.0000,  0.0000,  0.0000)
  46 Cu     8.097628    1.493528   20.686683    ( 0.0000,  0.0000,  0.0000)
  47 Cu     9.434311    3.782064   20.889565    ( 0.0000,  0.0000,  0.0000)
  48 Cu     8.124573    4.536271    9.797552    ( 0.0000,  0.0000,  0.0000)
  49 Cu     9.423441    5.295768   12.041806    ( 0.0000,  0.0000,  0.0000)
  50 Cu    10.747499    6.045698   14.247351    ( 0.0000,  0.0000,  0.0000)
  51 Cu     8.123434    4.531186   16.420674    ( 0.0000,  0.0000,  0.0000)
  52 Cu     9.424072    5.287173   18.636995    ( 0.0000,  0.0000,  0.0000)
  53 Cu    10.755654    6.079054   20.699574    ( 0.0000,  0.0000,  0.0000)
  54 Cl     4.685887    1.934897   22.744565    ( 0.0000,  0.0000,  0.0000)
  55 Cl     6.335783    4.108712    7.939497    ( 0.0000,  0.0000,  0.0000)
  56 Cl    10.815508    5.051170   22.729630    ( 0.0000,  0.0000,  0.0000)
  57 Cl     0.206012    0.992459    7.954234    ( 0.0000,  0.0000,  0.0000)
  58 Cl     9.897518    4.069354    7.947634    ( 0.0000,  0.0000,  0.0000)
  59 Cl     1.124509    1.974472   22.735948    ( 0.0000,  0.0000,  0.0000)
  60 Cl     6.989307    5.319745   22.668976    ( 0.0000,  0.0000,  0.0000)
  61 Cl     4.031951    0.724389    8.015848    ( 0.0000,  0.0000,  0.0000)

Unit cell:
           periodic     x           y           z      points  spacing
  1. axis:    yes    7.851007    0.000000    0.000000    45     0.1511
  2. axis:    yes    3.925503    6.799171    0.000000    45     0.1511
  3. axis:    yes    0.000000    0.000000   30.683867   175     0.1753

  Lengths:   7.851007   7.851006  30.683867
  Angles:   90.000000  90.000000  60.000001

Effective grid spacing dv^(1/3) = 0.1666

     iter     time        total  log10-change:
                         energy  eigst   dens
iter:   1 23:37:27 -4428.272685  -0.92
iter:   2 23:38:16 -4395.720299  -0.88  -1.35
iter:   3 23:39:01 -4385.758431  -2.21  -1.84
iter:   4 23:40:03 -4385.334515  -3.16  -2.31
iter:   5 23:40:48 -4385.299487  -3.00  -2.36
iter:   6 23:41:37 -4384.869213  -2.76  -2.41
iter:   7 23:42:22 -4384.819753  -4.09  -2.80
iter:   8 23:43:22 -4384.807626c -3.76  -2.94
iter:   9 23:44:15 -4384.809532c -4.60  -3.12
iter:  10 23:45:00 -4384.803281c -4.70  -3.21
iter:  11 23:45:45 -4384.802360c -4.91  -3.43
iter:  12 23:46:30 -4384.800130c -5.40  -3.47
iter:  13 23:47:26 -4384.800007c -5.37  -3.62
iter:  14 23:48:26 -4384.799564c -5.57  -3.80
iter:  15 23:49:19 -4384.799509c -6.60  -4.11c
iter:  16 23:50:05 -4384.799460c -6.78  -4.18c
iter:  17 23:51:04 -4384.799541c -6.14  -4.22c
iter:  18 23:52:05 -4384.799546c -7.30  -4.49c
iter:  19 23:52:55 -4384.799531c -7.66c -4.52c

Converged after 19 iterations.

Dipole moment: (15.296021, -3.667564, 0.004311) |e|*Ang

Energy contributions relative to reference atoms: (reference = -2531597.994586)

Kinetic:       +444.921903
Potential:     -485.333932
External:        +0.000000
XC:            -4343.339814
Entropy (-ST):   -0.517625
Local:           -0.788876
--------------------------
Free energy:   -4385.058343
Extrapolated:  -4384.799531

Showing only first 2 kpts
 Kpt  Band  Eigenvalues  Occupancy
  0   323      0.26448    1.12571
  0   324      0.31701    0.86461
  0   325      0.43830    0.36923
  0   326      0.45845    0.31237

  1   323     -0.26028    1.99186
  1   324     -0.17195    1.98043
  1   325      0.05426    1.82667
  1   326      0.15134    1.59933


Fermi level: 0.28976

No gap

Forces in eV/Ang:
  0 Cu    0.00291    0.00775    0.13401
  1 Cu   -0.02662    0.02538    0.16341
  2 Cu   -0.00244    0.10153   -0.02296
  3 Cu    0.00254    0.00522    0.03688
  4 Cu   -0.02870   -0.07401    0.06194
  5 Cu    0.01120    0.08388    0.07404
  6 Cu    0.03130   -0.08629    0.07778
  7 Cu    0.02204    0.01387    0.05242
  8 Cu    0.01131    0.00503   -0.03883
  9 Cu   -0.00039    0.00039   -0.06845
 10 Cu   -0.00804    0.00512   -0.04071
 11 Cu   -0.00162    0.00979   -0.07950
 12 Cu   -0.00496    0.00587    0.03990
 13 Cu    0.00066   -0.00046    0.06613
 14 Cu   -0.00928    0.00487    0.07624
 15 Cu   -0.00172    0.00023    0.05044
 16 Cu    0.00718    0.00446    0.04892
 17 Cu    0.07806   -0.01330   -0.05249
 18 Cu   -0.03108    0.08620   -0.07714
 19 Cu   -0.07996    0.02285   -0.07783
 20 Cu   -0.11980    0.06222    0.10155
 21 Cu    0.02624   -0.02553   -0.16506
 22 Cu    0.00883   -0.00431   -0.00727
 23 Cu    0.01186   -0.00952   -0.01581
 24 Cu    0.12642   -0.06555   -0.11605
 25 Cu   -0.15456   -0.08008   -0.10419
 26 Cu   -0.00597    0.00960    0.33118
 27 Cu    0.08004   -0.02331    0.07808
 28 Cu    0.00497   -0.00562   -0.04276
 29 Cu   -0.01206   -0.00014   -0.09057
 30 Cu   -0.01146   -0.00503    0.03567
 31 Cu   -0.00228    0.00359    0.06089
 32 Cu    0.05151   -0.05903   -0.06595
 33 Cu   -0.02225   -0.01393   -0.05438
 34 Cu   -0.00177   -0.00707   -0.13711
 35 Cu    0.01294    0.02769   -0.14811
 36 Cu   -0.01303   -0.02781    0.14639
 37 Cu   -0.01168    0.00929    0.01305
 38 Cu   -0.00738   -0.00441   -0.05018
 39 Cu   -0.05164    0.05945    0.06630
 40 Cu    0.00230   -0.00327   -0.06331
 41 Cu    0.00164   -0.00033   -0.05279
 42 Cu    0.01225    0.00046    0.08771
 43 Cu    0.00138   -0.01003    0.07661
 44 Cu    0.02814    0.07361   -0.06183
 45 Cu    0.00614   -0.00958   -0.32507
 46 Cu    0.14685    0.07578    0.08806
 47 Cu   -0.00246   -0.00496   -0.03964
 48 Cu   -0.00852    0.00429    0.00437
 49 Cu   -0.07887    0.01313    0.05285
 50 Cu    0.00896   -0.00465   -0.07920
 51 Cu    0.00814   -0.00495    0.03792
 52 Cu   -0.01144   -0.08341   -0.07376
 53 Cu    0.00191   -0.09399    0.00963
 54 Cl    0.00463    0.05443   -0.20155
 55 Cl   -0.00783   -0.05257    0.22144
 56 Cl    0.03822   -0.02913   -0.14480
 57 Cl   -0.03817    0.02577    0.16417
 58 Cl   -0.00961   -0.01021    0.22332
 59 Cl    0.01247    0.01214   -0.20170
 60 Cl   -0.20689   -0.07735   -0.09584
 61 Cl    0.20655    0.07665    0.10617

System changes: positions 

Initializing position-dependent things.

Density initialized from wave functions
                                              
                                              
                                              
                                              
                           Cl       Cl        
                                              
           Cl      Cl   Cu    Cu     Cu       
                   Cu     Cu    Cu            
                                              
               Cu   CCu    Cu    Cu           
                Cu    Cu    Cu                
                                              
           Cu   CCu    CCu   Cu               
                                              
            Cu    Cu    CCu   Cu     Cu       
       Cu     Cu   CCu    Cu    Cu            
                                              
               Cu   CCu    CCu   Cu           
                                              
                Cu    Cu    Cu                
           Cu    Cu    CCu   Cu               
                                              
            Cu    Cu     Cu                   
       Cu     Cu    Cu   Cl      Cl           
                                              
        Cl       Cl                           
                                              
                                              
                                              
                                              

Positions:
   0 Cu     2.857038   -0.026135    9.941437    ( 0.0000,  0.0000,  0.0000)
   1 Cu     4.200293    2.270147    9.896645    ( 0.0000,  0.0000,  0.0000)
   2 Cu     0.264925   -0.034465    9.996145    ( 0.0000,  0.0000,  0.0000)
   3 Cu     1.587552    2.262180    9.799776    ( 0.0000,  0.0000,  0.0000)
   4 Cu     2.890865    3.000571   12.045622    ( 0.0000,  0.0000,  0.0000)
   5 Cu     1.598055    0.765297   12.047558    ( 0.0000,  0.0000,  0.0000)
   6 Cu     5.509852    2.999405   12.039682    ( 0.0000,  0.0000,  0.0000)
   7 Cu     4.200609    0.753360   12.064218    ( 0.0000,  0.0000,  0.0000)
   8 Cu     5.511439    1.512925   14.238328    ( 0.0000,  0.0000,  0.0000)
   9 Cu     6.817474    3.777272   14.229107    ( 0.0000,  0.0000,  0.0000)
  10 Cu     2.895991    1.513489   14.258001    ( 0.0000,  0.0000,  0.0000)
  11 Cu     4.204244    3.780971   14.250606    ( 0.0000,  0.0000,  0.0000)
  12 Cu     2.890443   -0.002156   16.437332    ( 0.0000,  0.0000,  0.0000)
  13 Cu     4.203250    2.266603   16.455303    ( 0.0000,  0.0000,  0.0000)
  14 Cu     0.271534   -0.000833   16.448807    ( 0.0000,  0.0000,  0.0000)
  15 Cu     1.579242    2.263697   16.443812    ( 0.0000,  0.0000,  0.0000)
  16 Cu     2.891344    3.020637   18.672739    ( 0.0000,  0.0000,  0.0000)
  17 Cu     1.605500    0.747160   18.644654    ( 0.0000,  0.0000,  0.0000)
  18 Cu     5.510875    3.044391   18.645307    ( 0.0000,  0.0000,  0.0000)
  19 Cu     4.185682    0.751285   18.631332    ( 0.0000,  0.0000,  0.0000)
  20 Cu     5.544324    1.509785   20.681101    ( 0.0000,  0.0000,  0.0000)
  21 Cu     6.820533    3.773884   20.788325    ( 0.0000,  0.0000,  0.0000)
  22 Cu     2.898220    1.505780   20.887952    ( 0.0000,  0.0000,  0.0000)
  23 Cu     4.218207    3.781548   20.885091    ( 0.0000,  0.0000,  0.0000)
  24 Cu     5.476865    4.533966   10.003573    ( 0.0000,  0.0000,  0.0000)
  25 Cu     2.915370    4.546724   10.001672    ( 0.0000,  0.0000,  0.0000)
  26 Cu     4.202913    5.289322   12.071124    ( 0.0000,  0.0000,  0.0000)
  27 Cu     6.835100    5.292574   12.053666    ( 0.0000,  0.0000,  0.0000)
  28 Cu     8.130256    6.046025   14.247062    ( 0.0000,  0.0000,  0.0000)
  29 Cu     5.508650    6.043384   14.248988    ( 0.0000,  0.0000,  0.0000)
  30 Cu     5.509271    4.530960   16.445986    ( 0.0000,  0.0000,  0.0000)
  31 Cu     2.892776    4.534731   16.459237    ( 0.0000,  0.0000,  0.0000)
  32 Cu     4.221496    5.277419   18.650132    ( 0.0000,  0.0000,  0.0000)
  33 Cu     6.820061    5.290515   18.620550    ( 0.0000,  0.0000,  0.0000)
  34 Cu     8.163763    6.069970   20.743480    ( 0.0000,  0.0000,  0.0000)
  35 Cu     5.512617    6.045338   20.800972    ( 0.0000,  0.0000,  0.0000)
  36 Cu     5.508283   -0.001509    9.884042    ( 0.0000,  0.0000,  0.0000)
  37 Cu     6.802760    2.262327    9.799784    ( 0.0000,  0.0000,  0.0000)
  38 Cu     8.129364    3.023217   12.012096    ( 0.0000,  0.0000,  0.0000)
  39 Cu     6.799209    0.766488   12.034787    ( 0.0000,  0.0000,  0.0000)
  40 Cu     8.127940    1.509167   14.225211    ( 0.0000,  0.0000,  0.0000)
  41 Cu     9.441453    3.780160   14.240712    ( 0.0000,  0.0000,  0.0000)
  42 Cu     5.512105    0.000504   16.435396    ( 0.0000,  0.0000,  0.0000)
  43 Cu     6.816452    2.262879   16.433799    ( 0.0000,  0.0000,  0.0000)
  44 Cu     8.129803    3.043200   18.639421    ( 0.0000,  0.0000,  0.0000)
  45 Cu     6.817888    0.754577   18.614668    ( 0.0000,  0.0000,  0.0000)
  46 Cu     8.105067    1.496994   20.683228    ( 0.0000,  0.0000,  0.0000)
  47 Cu     9.433258    3.781830   20.885146    ( 0.0000,  0.0000,  0.0000)
  48 Cu     8.122771    4.538033    9.796978    ( 0.0000,  0.0000,  0.0000)
  49 Cu     9.415114    5.296688   12.040371    ( 0.0000,  0.0000,  0.0000)
  50 Cu    10.749170    6.044701   14.235532    ( 0.0000,  0.0000,  0.0000)
  51 Cu     8.124705    4.530399   16.426442    ( 0.0000,  0.0000,  0.0000)
  52 Cu     9.422683    5.278629   18.637442    ( 0.0000,  0.0000,  0.0000)
  53 Cu    10.755907    6.078723   20.688624    ( 0.0000,  0.0000,  0.0000)
  54 Cl     4.685948    1.945779   22.713273    ( 0.0000,  0.0000,  0.0000)
  55 Cl     6.335510    4.097979    7.972727    ( 0.0000,  0.0000,  0.0000)
  56 Cl    10.823827    5.046084   22.701871    ( 0.0000,  0.0000,  0.0000)
  57 Cl     0.197693    0.997328    7.983871    ( 0.0000,  0.0000,  0.0000)
  58 Cl     9.895089    4.067671    7.981019    ( 0.0000,  0.0000,  0.0000)
  59 Cl     1.127079    1.976284   22.704636    ( 0.0000,  0.0000,  0.0000)
  60 Cl     6.954391    5.305146   22.639655    ( 0.0000,  0.0000,  0.0000)
  61 Cl     4.066848    0.738892    8.046186    ( 0.0000,  0.0000,  0.0000)

Unit cell:
           periodic     x           y           z      points  spacing
  1. axis:    yes    7.851007    0.000000    0.000000    45     0.1511
  2. axis:    yes    3.925503    6.799171    0.000000    45     0.1511
  3. axis:    yes    0.000000    0.000000   30.683867   175     0.1753

  Lengths:   7.851007   7.851006  30.683867
  Angles:   90.000000  90.000000  60.000001

Effective grid spacing dv^(1/3) = 0.1666

     iter     time        total  log10-change:
                         energy  eigst   dens
iter:   1 23:54:06 -4385.809773  -2.26
iter:   2 23:54:53 -4384.963786  -2.85  -2.30
iter:   3 23:55:48 -4384.945551  -3.88  -2.69
iter:   4 23:56:40 -4384.919080c -4.11  -2.74
iter:   5 23:57:27 -4384.894162c -3.45  -2.82
iter:   6 23:58:32 -4384.880244c -4.33  -3.25
iter:   7 23:59:25 -4384.880381c -4.85  -3.37
iter:   8 00:00:18 -4384.880428c -5.47  -3.54
iter:   9 00:01:04 -4384.879433c -5.34  -3.67
iter:  10 00:01:50 -4384.879575c -5.76  -3.81
iter:  11 00:02:36 -4384.879090c -5.70  -3.80
iter:  12 00:03:21 -4384.878995c -5.83  -3.92
iter:  13 00:04:07 -4384.878802c -5.86  -4.17c
iter:  14 00:04:53 -4384.878807c -6.98  -4.28c
iter:  15 00:05:38 -4384.878811c -6.92  -4.34c
iter:  16 00:06:27 -4384.878769c -6.81  -4.53c
iter:  17 00:07:23 -4384.878769c -8.09c -4.72c

Converged after 17 iterations.

Dipole moment: (14.777652, -3.115422, -0.002563) |e|*Ang

Energy contributions relative to reference atoms: (reference = -2531597.994586)

Kinetic:       +451.179434
Potential:     -490.273619
External:        +0.000000
XC:            -4344.728644
Entropy (-ST):   -0.516292
Local:           -0.797793
--------------------------
Free energy:   -4385.136915
Extrapolated:  -4384.878769

Showing only first 2 kpts
 Kpt  Band  Eigenvalues  Occupancy
  0   323      0.30584    1.15158
  0   324      0.35923    0.88633
  0   325      0.48926    0.35639
  0   326      0.49742    0.33309

  1   323     -0.21695    1.99213
  1   324     -0.12902    1.98113
  1   325      0.11059    1.81067
  1   326      0.20927    1.56191


Fermi level: 0.33639

No gap

Forces in eV/Ang:
  0 Cu    0.05487    0.04532    0.06699
  1 Cu   -0.02762   -0.01393    0.14454
  2 Cu   -0.00007    0.00447    0.08362
  3 Cu    0.00034   -0.02080    0.05949
  4 Cu   -0.01647   -0.01287    0.07890
  5 Cu   -0.00879    0.03860    0.09503
  6 Cu    0.01607   -0.01478    0.08465
  7 Cu    0.00252    0.00365    0.08073
  8 Cu    0.00313   -0.00290    0.04058
  9 Cu    0.00594   -0.00561   -0.00095
 10 Cu    0.00256   -0.00081    0.02550
 11 Cu   -0.00174   -0.01725    0.01092
 12 Cu   -0.00490   -0.00474   -0.02675
 13 Cu   -0.00613    0.00552    0.00216
 14 Cu    0.01754   -0.01087   -0.01615
 15 Cu    0.00460    0.00231    0.00554
 16 Cu    0.00525    0.00145    0.01180
 17 Cu    0.02314    0.00666   -0.06899
 18 Cu   -0.01651    0.01549   -0.08589
 19 Cu   -0.02048    0.02700   -0.08832
 20 Cu    0.00573   -0.00845   -0.09452
 21 Cu    0.02782    0.01435   -0.14221
 22 Cu    0.01211   -0.01582   -0.04120
 23 Cu    0.00693    0.00572   -0.04465
 24 Cu   -0.01184    0.01141    0.10413
 25 Cu   -0.00763    0.00026    0.10528
 26 Cu   -0.00301   -0.01355    0.14510
 27 Cu    0.01983   -0.02674    0.08721
 28 Cu    0.00490    0.00496    0.02832
 29 Cu    0.01287    0.01224    0.00576
 30 Cu   -0.00339    0.00269   -0.03870
 31 Cu    0.00251   -0.00602   -0.00178
 32 Cu    0.01346   -0.02351   -0.07839
 33 Cu   -0.00250   -0.00365   -0.08050
 34 Cu   -0.05540   -0.04541   -0.06443
 35 Cu    0.02988    0.00453   -0.12878
 36 Cu   -0.02979   -0.00435    0.13077
 37 Cu   -0.00790   -0.00601    0.04702
 38 Cu   -0.00527   -0.00141   -0.01189
 39 Cu   -0.01333    0.02297    0.07763
 40 Cu   -0.00276    0.00592    0.00306
 41 Cu   -0.00474   -0.00221   -0.00451
 42 Cu   -0.01292   -0.01204   -0.00348
 43 Cu    0.00159    0.01699   -0.00881
 44 Cu    0.01685    0.01367   -0.07983
 45 Cu    0.00270    0.01328   -0.15377
 46 Cu    0.01403    0.00328   -0.09567
 47 Cu    0.00032    0.01996   -0.05732
 48 Cu   -0.01240    0.01662    0.04347
 49 Cu   -0.02228   -0.00657    0.06808
 50 Cu   -0.01810    0.01116    0.01856
 51 Cu   -0.00258    0.00070   -0.02404
 52 Cu    0.00869   -0.03912   -0.09610
 53 Cu    0.00020   -0.01110   -0.07478
 54 Cl   -0.03537    0.04664    0.03567
 55 Cl    0.03841   -0.04791   -0.04664
 56 Cl    0.01170   -0.03169    0.00045
 57 Cl   -0.01172    0.03524   -0.01111
 58 Cl   -0.05547   -0.03899   -0.04578
 59 Cl    0.05185    0.03715    0.03432
 60 Cl   -0.13016   -0.03590   -0.05198
 61 Cl    0.13019    0.03548    0.04536

System changes: positions 

Initializing position-dependent things.

Density initialized from wave functions
                                              
                                              
                                              
                                              
                           Cl       Cl        
                                              
           Cl      Cl   Cu    Cu     Cu       
                   Cu     Cu    Cu            
                                              
               Cu   CCu    Cu    Cu           
                Cu    Cu    Cu                
                                              
           Cu   CCu    CCu   Cu               
                                              
            Cu    Cu    CCu   Cu     Cu       
       Cu     Cu   CCu    Cu    Cu            
                                              
               Cu   CCu    CCu   Cu           
                                              
                Cu    Cu    Cu                
           Cu    Cu    CCu   Cu               
                                              
            Cu    Cu     Cu                   
       Cu     Cu    Cu   Cl      Cl           
                                              
        Cl       Cl                           
                                              
                                              
                                              
                                              

Positions:
   0 Cu     2.860922   -0.021627    9.961345    ( 0.0000,  0.0000,  0.0000)
   1 Cu     4.195783    2.272362    9.926870    ( 0.0000,  0.0000,  0.0000)
   2 Cu     0.264703   -0.034624   10.012224    ( 0.0000,  0.0000,  0.0000)
   3 Cu     1.588087    2.259544    9.809112    ( 0.0000,  0.0000,  0.0000)
   4 Cu     2.887235    2.995758   12.054428    ( 0.0000,  0.0000,  0.0000)
   5 Cu     1.597496    0.774153   12.058128    ( 0.0000,  0.0000,  0.0000)
   6 Cu     5.513540    2.993758   12.049585    ( 0.0000,  0.0000,  0.0000)
   7 Cu     4.201758    0.754357   12.076051    ( 0.0000,  0.0000,  0.0000)
   8 Cu     5.512623    1.513058   14.240823    ( 0.0000,  0.0000,  0.0000)
   9 Cu     6.818165    3.776663   14.223492    ( 0.0000,  0.0000,  0.0000)
  10 Cu     2.895665    1.513809   14.258434    ( 0.0000,  0.0000,  0.0000)
  11 Cu     4.203876    3.779537   14.246450    ( 0.0000,  0.0000,  0.0000)
  12 Cu     2.889481   -0.002324   16.436868    ( 0.0000,  0.0000,  0.0000)
  13 Cu     4.202540    2.267197   16.460991    ( 0.0000,  0.0000,  0.0000)
  14 Cu     0.272975   -0.001746   16.452354    ( 0.0000,  0.0000,  0.0000)
  15 Cu     1.579563    2.263988   16.448658    ( 0.0000,  0.0000,  0.0000)
  16 Cu     2.892587    3.021007   18.681498    ( 0.0000,  0.0000,  0.0000)
  17 Cu     1.612210    0.747828   18.637732    ( 0.0000,  0.0000,  0.0000)
  18 Cu     5.507129    3.050115   18.635309    ( 0.0000,  0.0000,  0.0000)
  19 Cu     4.179449    0.755662   18.621480    ( 0.0000,  0.0000,  0.0000)
  20 Cu     5.544223    1.509426   20.667251    ( 0.0000,  0.0000,  0.0000)
  21 Cu     6.825054    3.771716   20.758339    ( 0.0000,  0.0000,  0.0000)
  22 Cu     2.900869    1.502737   20.883375    ( 0.0000,  0.0000,  0.0000)
  23 Cu     4.221782    3.782832   20.879244    ( 0.0000,  0.0000,  0.0000)
  24 Cu     5.476418    4.534583   10.018150    ( 0.0000,  0.0000,  0.0000)
  25 Cu     2.911686    4.545608   10.017144    ( 0.0000,  0.0000,  0.0000)
  26 Cu     4.202340    5.287870   12.097665    ( 0.0000,  0.0000,  0.0000)
  27 Cu     6.841253    5.288224   12.063422    ( 0.0000,  0.0000,  0.0000)
  28 Cu     8.131213    6.046236   14.247629    ( 0.0000,  0.0000,  0.0000)
  29 Cu     5.509431    6.044883   14.243136    ( 0.0000,  0.0000,  0.0000)
  30 Cu     5.508041    4.530800   16.443633    ( 0.0000,  0.0000,  0.0000)
  31 Cu     2.892818    4.534256   16.464102    ( 0.0000,  0.0000,  0.0000)
  32 Cu     4.225348    5.271747   18.640990    ( 0.0000,  0.0000,  0.0000)
  33 Cu     6.818904    5.289517   18.608693    ( 0.0000,  0.0000,  0.0000)
  34 Cu     8.159857    6.065478   20.723782    ( 0.0000,  0.0000,  0.0000)
  35 Cu     5.515322    6.048470   20.773416    ( 0.0000,  0.0000,  0.0000)
  36 Cu     5.505585   -0.004620    9.911783    ( 0.0000,  0.0000,  0.0000)
  37 Cu     6.799075    2.260995    9.805817    ( 0.0000,  0.0000,  0.0000)
  38 Cu     8.128108    3.022855   12.003304    ( 0.0000,  0.0000,  0.0000)
  39 Cu     6.795355    0.772109   12.043883    ( 0.0000,  0.0000,  0.0000)
  40 Cu     8.127859    1.509644   14.220432    ( 0.0000,  0.0000,  0.0000)
  41 Cu     9.441107    3.779879   14.235912    ( 0.0000,  0.0000,  0.0000)
  42 Cu     5.511323   -0.000952   16.441454    ( 0.0000,  0.0000,  0.0000)
  43 Cu     6.816784    2.264264   16.438138    ( 0.0000,  0.0000,  0.0000)
  44 Cu     8.133463    3.048092   18.630532    ( 0.0000,  0.0000,  0.0000)
  45 Cu     6.818423    0.755998   18.587279    ( 0.0000,  0.0000,  0.0000)
  46 Cu     8.109267    1.498399   20.668410    ( 0.0000,  0.0000,  0.0000)
  47 Cu     9.432805    3.784375   20.875962    ( 0.0000,  0.0000,  0.0000)
  48 Cu     8.120105    4.541172    9.801718    ( 0.0000,  0.0000,  0.0000)
  49 Cu     9.408476    5.296036   12.047223    ( 0.0000,  0.0000,  0.0000)
  50 Cu    10.747632    6.045663   14.232209    ( 0.0000,  0.0000,  0.0000)
  51 Cu     8.125030    4.530070   16.426098    ( 0.0000,  0.0000,  0.0000)
  52 Cu     9.423226    5.269725   18.626779    ( 0.0000,  0.0000,  0.0000)
  53 Cu    10.756114    6.078313   20.673225    ( 0.0000,  0.0000,  0.0000)
  54 Cl     4.682123    1.957547   22.697995    ( 0.0000,  0.0000,  0.0000)
  55 Cl     6.339687    4.086094    7.987256    ( 0.0000,  0.0000,  0.0000)
  56 Cl    10.829992    5.040145   22.683220    ( 0.0000,  0.0000,  0.0000)
  57 Cl     0.191528    1.003690    8.001776    ( 0.0000,  0.0000,  0.0000)
  58 Cl     9.887138    4.062046    7.995535    ( 0.0000,  0.0000,  0.0000)
  59 Cl     1.134565    1.981700   22.689362    ( 0.0000,  0.0000,  0.0000)
  60 Cl     6.918681    5.292474   22.612944    ( 0.0000,  0.0000,  0.0000)
  61 Cl     4.102548    0.751456    8.072356    ( 0.0000,  0.0000,  0.0000)

Unit cell:
           periodic     x           y           z      points  spacing
  1. axis:    yes    7.851007    0.000000    0.000000    45     0.1511
  2. axis:    yes    3.925503    6.799171    0.000000    45     0.1511
  3. axis:    yes    0.000000    0.000000   30.683867   175     0.1753

  Lengths:   7.851007   7.851006  30.683867
  Angles:   90.000000  90.000000  60.000001

Effective grid spacing dv^(1/3) = 0.1666

     iter     time        total  log10-change:
                         energy  eigst   dens
iter:   1 00:08:42 -4385.480210  -2.33
iter:   2 00:09:37 -4384.996391  -3.05  -2.40
iter:   3 00:10:38 -4384.963290  -4.06  -2.72
iter:   4 00:11:29 -4384.943897c -3.32  -2.80
iter:   5 00:12:32 -4384.935038c -4.53  -3.22
iter:   6 00:13:18 -4384.931131c -5.15  -3.34
iter:   7 00:14:04 -4384.930631c -5.45  -3.48
[...]
  2 Cu   -0.00053   -0.00021   -0.01017
  3 Cu    0.00347   -0.00350    0.00523
  4 Cu    0.00791    0.00280   -0.00551
  5 Cu   -0.00043    0.00099    0.00477
  6 Cu    0.00056   -0.00190   -0.00518
  7 Cu   -0.00121   -0.00160   -0.00911
  8 Cu    0.00221    0.00076    0.00222
  9 Cu    0.00127   -0.00065    0.00886
 10 Cu    0.00181    0.00035   -0.00004
 11 Cu   -0.00083    0.00063    0.00482
 12 Cu   -0.00163   -0.00132   -0.00017
 13 Cu   -0.00166    0.00069   -0.00690
 14 Cu   -0.00003   -0.00264   -0.00771
 15 Cu    0.00107    0.00035   -0.00057
 16 Cu   -0.00220   -0.00231    0.00611
 17 Cu   -0.00313   -0.00612    0.00356
 18 Cu   -0.00065    0.00229    0.00371
 19 Cu    0.00207    0.00204   -0.00966
 20 Cu    0.00406   -0.00397   -0.00679
 21 Cu   -0.00194   -0.00274    0.00867
 22 Cu   -0.00076   -0.00155   -0.01225
 23 Cu   -0.00434    0.00071   -0.00659
 24 Cu   -0.00167    0.00276   -0.00189
 25 Cu    0.00208    0.00401   -0.00093
 26 Cu    0.00598   -0.00078    0.00874
 27 Cu   -0.00251   -0.00208    0.00818
 28 Cu    0.00171    0.00148    0.00222
 29 Cu    0.00051    0.00132    0.01016
 30 Cu   -0.00209   -0.00084   -0.00042
 31 Cu    0.00049   -0.00151   -0.00530
 32 Cu    0.00580   -0.00149    0.00810
 33 Cu    0.00109    0.00155    0.00665
 34 Cu    0.00581    0.00267   -0.00301
 35 Cu    0.00311   -0.00253    0.01335
 36 Cu   -0.00304    0.00254   -0.01558
 37 Cu    0.00403   -0.00066    0.00361
 38 Cu    0.00211    0.00228   -0.00888
 39 Cu   -0.00552    0.00113   -0.00972
 40 Cu   -0.00073    0.00109    0.00721
 41 Cu   -0.00080   -0.00014    0.00243
 42 Cu   -0.00147   -0.00164   -0.00871
 43 Cu    0.00080    0.00020   -0.00346
 44 Cu   -0.00798   -0.00229    0.00371
 45 Cu   -0.00613    0.00080   -0.00938
 46 Cu   -0.00393   -0.00502   -0.00616
 47 Cu   -0.00347    0.00324   -0.00783
 48 Cu    0.00034    0.00168    0.00943
 49 Cu    0.00357    0.00605   -0.00526
 50 Cu    0.00073    0.00242    0.00906
 51 Cu   -0.00180   -0.00038    0.00186
 52 Cu    0.00003   -0.00131   -0.00645
 53 Cu    0.00038    0.00261    0.00245
 54 Cl   -0.02734    0.01846    0.00179
 55 Cl    0.02486   -0.01696    0.01242
 56 Cl   -0.00131   -0.01457   -0.01220
 57 Cl    0.00133    0.01191    0.02580
 58 Cl   -0.00297   -0.00321    0.01410
 59 Cl    0.00486    0.00446   -0.00153
 60 Cl   -0.00001    0.00756    0.01885
 61 Cl   -0.00024   -0.00762   -0.00994

System changes: positions 

Initializing position-dependent things.

Density initialized from wave functions
                                              
                                              
                                              
                                              
                           Cl       Cl        
                                              
           Cl      Cl   Cu    Cu     Cu       
                   Cu     Cu    Cu            
                                              
               Cu   CCu    CCu   Cu           
                Cu                            
                      Cu     Cu               
           Cu   CCu    CCu   Cu               
                                              
            Cu    Cu    CCu   Cu     Cu       
       Cu     Cu   CCu    Cu    Cu            
                                              
               Cu   CCu    CCu   Cu           
               Cu                             
                      Cu    Cu                
           Cu   CCu    CCu   Cu               
                                              
            Cu    Cu     Cu                   
       Cu     Cu    Cu   Cl      Cl           
                                              
        Cl       Cl                           
                                              
                                              
                                              
                                              

Positions:
   0 Cu     2.876985   -0.004576   10.026053    ( 0.0000,  0.0000,  0.0000)
   1 Cu     4.191825    2.274914   10.041084    ( 0.0000,  0.0000,  0.0000)
   2 Cu     0.267361   -0.030195   10.094137    ( 0.0000,  0.0000,  0.0000)
   3 Cu     1.586114    2.257650    9.870221    ( 0.0000,  0.0000,  0.0000)
   4 Cu     2.879441    3.001896   12.126104    ( 0.0000,  0.0000,  0.0000)
   5 Cu     1.598396    0.776940   12.116742    ( 0.0000,  0.0000,  0.0000)
   6 Cu     5.514206    3.002344   12.122355    ( 0.0000,  0.0000,  0.0000)
   7 Cu     4.196371    0.757074   12.166207    ( 0.0000,  0.0000,  0.0000)
   8 Cu     5.511382    1.514160   14.289214    ( 0.0000,  0.0000,  0.0000)
   9 Cu     6.822248    3.776603   14.240443    ( 0.0000,  0.0000,  0.0000)
  10 Cu     2.894021    1.516015   14.295444    ( 0.0000,  0.0000,  0.0000)
  11 Cu     4.199269    3.774251   14.278707    ( 0.0000,  0.0000,  0.0000)
  12 Cu     2.890093   -0.003361   16.404935    ( 0.0000,  0.0000,  0.0000)
  13 Cu     4.198156    2.267271   16.445434    ( 0.0000,  0.0000,  0.0000)
  14 Cu     0.279228   -0.003114   16.413573    ( 0.0000,  0.0000,  0.0000)
  15 Cu     1.583774    2.266792   16.427675    ( 0.0000,  0.0000,  0.0000)
  16 Cu     2.896902    3.018731   18.642440    ( 0.0000,  0.0000,  0.0000)
  17 Cu     1.613420    0.753277   18.563792    ( 0.0000,  0.0000,  0.0000)
  18 Cu     5.506320    3.041632   18.562771    ( 0.0000,  0.0000,  0.0000)
  19 Cu     4.180301    0.750077   18.569453    ( 0.0000,  0.0000,  0.0000)
  20 Cu     5.545428    1.498374   20.592028    ( 0.0000,  0.0000,  0.0000)
  21 Cu     6.828876    3.769097   20.643901    ( 0.0000,  0.0000,  0.0000)
  22 Cu     2.905240    1.494507   20.828773    ( 0.0000,  0.0000,  0.0000)
  23 Cu     4.227266    3.782502   20.814399    ( 0.0000,  0.0000,  0.0000)
  24 Cu     5.475313    4.545565   10.093116    ( 0.0000,  0.0000,  0.0000)
  25 Cu     2.907499    4.548293   10.093448    ( 0.0000,  0.0000,  0.0000)
  26 Cu     4.197212    5.287676   12.155389    ( 0.0000,  0.0000,  0.0000)
  27 Cu     6.840234    5.293911   12.115672    ( 0.0000,  0.0000,  0.0000)
  28 Cu     8.130357    6.047306   14.281033    ( 0.0000,  0.0000,  0.0000)
  29 Cu     5.512790    6.048708   14.260882    ( 0.0000,  0.0000,  0.0000)
  30 Cu     5.509055    4.529718   16.396654    ( 0.0000,  0.0000,  0.0000)
  31 Cu     2.891216    4.527792   16.437540    ( 0.0000,  0.0000,  0.0000)
  32 Cu     4.220164    5.267294   18.562081    ( 0.0000,  0.0000,  0.0000)
  33 Cu     6.824203    5.286865   18.518882    ( 0.0000,  0.0000,  0.0000)
  34 Cu     8.143667    6.048477   20.658890    ( 0.0000,  0.0000,  0.0000)
  35 Cu     5.512890    6.046343   20.644883    ( 0.0000,  0.0000,  0.0000)
  36 Cu     5.507843   -0.002445   10.040177    ( 0.0000,  0.0000,  0.0000)
  37 Cu     6.793574    2.261437    9.870527    ( 0.0000,  0.0000,  0.0000)
  38 Cu     8.123688    3.025212   12.042468    ( 0.0000,  0.0000,  0.0000)
  39 Cu     6.800448    0.776573   12.123056    ( 0.0000,  0.0000,  0.0000)
  40 Cu     8.129151    1.516089   14.248294    ( 0.0000,  0.0000,  0.0000)
  41 Cu     9.436625    3.777115   14.258156    ( 0.0000,  0.0000,  0.0000)
  42 Cu     5.507587   -0.004749   16.425226    ( 0.0000,  0.0000,  0.0000)
  43 Cu     6.821133    2.269669   16.407336    ( 0.0000,  0.0000,  0.0000)
  44 Cu     8.141205    3.042109   18.559000    ( 0.0000,  0.0000,  0.0000)
  45 Cu     6.823431    0.756302   18.529595    ( 0.0000,  0.0000,  0.0000)
  46 Cu     8.113168    1.495669   20.591740    ( 0.0000,  0.0000,  0.0000)
  47 Cu     9.434537    3.786356   20.814611    ( 0.0000,  0.0000,  0.0000)
  48 Cu     8.115545    4.549348    9.856170    ( 0.0000,  0.0000,  0.0000)
  49 Cu     9.407265    5.290705   12.121338    ( 0.0000,  0.0000,  0.0000)
  50 Cu    10.741179    6.047062   14.272464    ( 0.0000,  0.0000,  0.0000)
  51 Cu     8.126391    4.527874   16.390433    ( 0.0000,  0.0000,  0.0000)
  52 Cu     9.422177    5.266968   18.568351    ( 0.0000,  0.0000,  0.0000)
  53 Cu    10.753327    6.074188   20.590945    ( 0.0000,  0.0000,  0.0000)
  54 Cl     4.676305    1.960756   22.627729    ( 0.0000,  0.0000,  0.0000)
  55 Cl     6.344847    4.083218    8.057689    ( 0.0000,  0.0000,  0.0000)
  56 Cl    10.791604    5.058407   22.615874    ( 0.0000,  0.0000,  0.0000)
  57 Cl     0.229609    0.985300    8.069497    ( 0.0000,  0.0000,  0.0000)
  58 Cl     9.881434    4.028462    8.070915    ( 0.0000,  0.0000,  0.0000)
  59 Cl     1.139929    2.015366   22.614386    ( 0.0000,  0.0000,  0.0000)
  60 Cl     6.830219    5.278164   22.519306    ( 0.0000,  0.0000,  0.0000)
  61 Cl     4.190683    0.765670    8.166361    ( 0.0000,  0.0000,  0.0000)

Unit cell:
           periodic     x           y           z      points  spacing
  1. axis:    yes    7.851007    0.000000    0.000000    45     0.1511
  2. axis:    yes    3.925503    6.799171    0.000000    45     0.1511
  3. axis:    yes    0.000000    0.000000   30.683867   175     0.1753

  Lengths:   7.851007   7.851006  30.683867
  Angles:   90.000000  90.000000  60.000001

Effective grid spacing dv^(1/3) = 0.1666

     iter     time        total  log10-change:
                         energy  eigst   dens
iter:   1 02:20:18 -4385.105972  -3.55
iter:   2 02:21:03 -4385.060497  -4.12  -2.94
iter:   3 02:21:48 -4385.060920c -5.19  -3.50
iter:   4 02:22:37 -4385.058644c -5.86  -3.50
iter:   5 02:23:27 -4385.058116c -5.27  -3.65
iter:   6 02:24:11 -4385.057960c -6.44  -4.05c
iter:   7 02:24:56 -4385.057931c -6.85  -4.14c
iter:   8 02:25:41 -4385.057933c -6.75  -4.23c
iter:   9 02:26:38 -4385.057902c -6.76  -4.39c
iter:  10 02:27:37 -4385.057897c -7.65c -4.59c

Converged after 10 iterations.

Dipole moment: (18.493891, -3.276946, 0.000229) |e|*Ang

Energy contributions relative to reference atoms: (reference = -2531597.994586)

Kinetic:       +466.908374
Potential:     -502.551926
External:        +0.000000
XC:            -4348.467937
Entropy (-ST):   -0.510681
Local:           -0.691067
--------------------------
Free energy:   -4385.313238
Extrapolated:  -4385.057897

Showing only first 2 kpts
 Kpt  Band  Eigenvalues  Occupancy
  0   323      0.29151    1.18667
  0   324      0.35121    0.89082
  0   325      0.45639    0.43816
  0   326      0.52231    0.25344

  1   323     -0.20907    1.99086
  1   324     -0.12047    1.97797
  1   325      0.11779    1.78469
  1   326      0.21917    1.50097


Fermi level: 0.32929

No gap

Forces in eV/Ang:
  0 Cu    0.00025   -0.00012    0.00421
  1 Cu    0.00267    0.00142   -0.00265
  2 Cu    0.00216   -0.00088    0.00344
  3 Cu    0.00480   -0.00087    0.00782
  4 Cu    0.00319   -0.00255    0.00716
  5 Cu    0.00035    0.00180    0.00822
  6 Cu   -0.00078   -0.00517    0.00846
  7 Cu    0.00105    0.00381    0.01109
  8 Cu    0.00012    0.00240   -0.01476
  9 Cu   -0.00115    0.00189   -0.00693
 10 Cu   -0.00495    0.00352   -0.00140
 11 Cu    0.00136    0.01229   -0.00477
 12 Cu    0.00071    0.00429    0.00503
 13 Cu    0.00122   -0.00148    0.00219
 14 Cu   -0.01271    0.00627    0.00366
 15 Cu   -0.00111   -0.00017   -0.00432
 16 Cu   -0.00313    0.00166   -0.00959
 17 Cu   -0.00329   -0.00605   -0.00465
 18 Cu    0.00119    0.00477   -0.00547
 19 Cu    0.00014   -0.00372   -0.00317
 20 Cu   -0.00229   -0.00041    0.00058
 21 Cu   -0.00264   -0.00011    0.00504
 22 Cu   -0.00089   -0.00297   -0.00634
 23 Cu    0.00468    0.00092   -0.00273
 24 Cu    0.00063    0.00108    0.00152
 25 Cu    0.00412    0.00205    0.00489
 26 Cu   -0.00364    0.00097    0.00597
 27 Cu    0.00046    0.00344    0.00644
 28 Cu   -0.00093   -0.00441   -0.01042
 29 Cu   -0.00793   -0.00452   -0.00435
 30 Cu   -0.00038   -0.00207    0.00987
 31 Cu   -0.00260    0.00048    0.00036
 32 Cu    0.00232    0.00030   -0.00748
 33 Cu   -0.00144   -0.00388   -0.00847
 34 Cu   -0.00167   -0.00057   -0.00152
 35 Cu   -0.00109   -0.00100    0.00584
 36 Cu    0.00209    0.00050   -0.00356
 37 Cu   -0.00658   -0.00146    0.00556
 38 Cu    0.00283   -0.00159    0.01253
 39 Cu   -0.00251    0.00037    0.01013
 40 Cu    0.00298   -0.00011   -0.00466
 41 Cu    0.00121    0.00012   -0.00012
 42 Cu    0.00819    0.00427   -0.00145
 43 Cu   -0.00143   -0.01220   -0.00091
 44 Cu   -0.00399    0.00196   -0.00427
 45 Cu    0.00344   -0.00107   -0.00048
 46 Cu   -0.00230   -0.00093   -0.00234
 47 Cu   -0.00334    0.00001   -0.00490
 48 Cu    0.00074    0.00461    0.00909
 49 Cu    0.00219    0.00551    0.00778
 50 Cu    0.01291   -0.00664   -0.00904
 51 Cu    0.00501   -0.00319   -0.00358
 52 Cu   -0.00024   -0.00121   -0.00541
 53 Cu   -0.00218   -0.00143   -0.00003
 54 Cl   -0.00997    0.00811   -0.02023
 55 Cl    0.01048   -0.00856    0.00896
 56 Cl   -0.00442   -0.00002   -0.01327
 57 Cl    0.00404    0.00121    0.00046
 58 Cl    0.00137   -0.00223    0.00464
 59 Cl   -0.00229    0.00169   -0.01647
 60 Cl    0.00522    0.00239    0.00800
 61 Cl   -0.00429   -0.00236   -0.01813

Timing:                                      incl.     excl.
-------------------------------------------------------------------
Density initialized from wave functions:    81.505    81.505   0.5% |
 Symmetrize density:                         0.001     0.001   0.0% |
Forces:                                    320.584   320.584   2.0% ||
Hamiltonian:                               151.951     0.340   0.0% |
 Atomic:                                     2.859     0.818   0.0% |
  XC Correction:                             2.042     2.042   0.0% |
 Calculate atomic Hamiltonians:             27.267    27.267   0.2% |
 Communicate:                                4.472     4.472   0.0% |
 Initialize Hamiltonian:                     0.002     0.002   0.0% |
 Poisson:                                    0.102     0.102   0.0% |
 XC 3D grid:                               116.909    17.871   0.1% |
  VdW-DF integral:                          99.038     3.629   0.0% |
   Convolution:                              5.648     5.648   0.0% |
   FFT:                                      2.784     2.784   0.0% |
   gather:                                  42.523    42.523   0.3% |
   hmm1:                                     1.720     1.720   0.0% |
   hmm2:                                     3.985     3.985   0.0% |
   iFFT:                                     2.921     2.921   0.0% |
   potential:                               30.751     0.421   0.0% |
    collect:                                 5.006     5.006   0.0% |
    p1:                                     13.242    13.242   0.1% |
    p2:                                      5.973     5.973   0.0% |
    sum:                                     6.109     6.109   0.0% |
   splines:                                  5.078     5.078   0.0% |
LCAO initialization:                       220.702     0.491   0.0% |
 LCAO eigensolver:                          12.414     0.002   0.0% |
  Blacs Orbital Layouts:                     0.720     0.001   0.0% |
   General diagonalize:                      0.703     0.703   0.0% |
   Redistribute coefs:                       0.010     0.010   0.0% |
   Send coefs to domains:                    0.006     0.006   0.0% |
  Calculate projections:                     0.015     0.015   0.0% |
  Distribute overlap matrix:                11.414     0.002   0.0% |
   Scalapack redistribute:                   0.017     0.017   0.0% |
   blocked summation:                       11.395    11.395   0.1% |
  Potential matrix:                          0.177     0.177   0.0% |
  SparseAtomicCorrection:                    0.019     0.019   0.0% |
  Sum over cells:                            0.067     0.067   0.0% |
 LCAO to grid:                             205.534   205.534   1.3% ||
 Set positions (LCAO WFS):                   2.263     0.043   0.0% |
  Basic WFS set positions:                   0.002     0.002   0.0% |
  Basis functions set positions:             0.000     0.000   0.0% |
  P tci:                                     0.054     0.054   0.0% |
  ST tci:                                    0.398     0.398   0.0% |
  Scalapack redistribute:                    0.017     0.017   0.0% |
  blocked summation:                         1.607     1.607   0.0% |
  mktci:                                     0.141     0.141   0.0% |
PWDescriptor:                                0.991     0.991   0.0% |
Redistribute:                                0.134     0.134   0.0% |
SCF-cycle:                               15278.396  1032.988   6.4% |--|
 Davidson:                               10285.591  2398.385  14.8% |-----|
  Apply H:                                1173.345  1154.492   7.1% |--|
   HMM T:                                   18.854    18.854   0.1% |
  Subspace diag:                          1821.544     0.081   0.0% |
   calc_h_matrix:                         1400.003   246.160   1.5% ||
    Apply H:                              1153.843  1134.970   7.0% |--|
     HMM T:                                 18.873    18.873   0.1% |
   diagonalize:                             61.737    61.737   0.4% |
   rotate_psi:                             359.724   359.724   2.2% ||
  calc. matrices:                         3880.027  1608.808  10.0% |---|
   Apply H:                               2271.219  2234.736  13.8% |-----|
    HMM T:                                  36.483    36.483   0.2% |
  diagonalize:                             352.164   352.164   2.2% ||
  rotate_psi:                              660.126   660.126   4.1% |-|
 Density:                                 1352.400     0.014   0.0% |
  Atomic density matrices:                   6.783     6.783   0.0% |
  Mix:                                     594.364   594.364   3.7% ||
  Multipole moments:                         0.375     0.375   0.0% |
  Pseudo density:                          750.864   750.850   4.6% |-|
   Symmetrize density:                       0.014     0.014   0.0% |
 Hamiltonian:                             2555.855     5.256   0.0% |
  Atomic:                                   51.369    17.076   0.1% |
   XC Correction:                           34.292    34.292   0.2% |
  Calculate atomic Hamiltonians:           479.866   479.866   3.0% ||
  Communicate:                             106.195   106.195   0.7% |
  Poisson:                                   1.562     1.562   0.0% |
  XC 3D grid:                             1911.608   265.213   1.6% ||
   VdW-DF integral:                       1646.395    57.577   0.4% |
    Convolution:                            89.787    89.787   0.6% |
    FFT:                                    46.367    46.367   0.3% |
    gather:                                765.850   765.850   4.7% |-|
    hmm1:                                   28.893    28.893   0.2% |
    hmm2:                                   67.723    67.723   0.4% |
    iFFT:                                   48.197    48.197   0.3% |
    potential:                             541.998     6.910   0.0% |
     collect:                               88.544    88.544   0.5% |
     p1:                                   224.995   224.995   1.4% ||
     p2:                                    95.597    95.597   0.6% |
     sum:                                  125.951   125.951   0.8% |
    splines:                                 0.003     0.003   0.0% |
 Orthonormalize:                            51.563     0.007   0.0% |
  calc_s_matrix:                             6.874     6.874   0.0% |
  inverse-cholesky:                          1.865     1.865   0.0% |
  projections:                              32.183    32.183   0.2% |
  rotate_psi_s:                             10.635    10.635   0.1% |
Set symmetry:                                0.001     0.001   0.0% |
Other:                                     111.294   111.294   0.7% |
-------------------------------------------------------------------
Total:                                             16165.558 100.0%

Memory usage: 1.25 GiB
Date: Sun Oct  9 02:27:56 2022
