
  ___ ___ ___ _ _ _  
 |   |   |_  | | | | 
 | | | | | . | | | | 
 |__ |  _|___|_____|  22.1.0
 |___|_|             

User:   thorkong@node027.cluster
Date:   Sun Oct  9 00:49:35 2022
Arch:   x86_64
Pid:    99536
Python: 3.10.5
gpaw:   /groups/kemi/thorkong/miniconda3/envs/gpaw22/lib/python3.10/site-packages/gpaw
_gpaw:  /groups/kemi/thorkong/miniconda3/envs/gpaw22/lib/python3.10/site-packages/
        _gpaw.cpython-310-x86_64-linux-gnu.so
ase:    /groups/kemi/thorkong/miniconda3/envs/gpaw22/lib/python3.10/site-packages/ase (version 3.22.1)
numpy:  /groups/kemi/thorkong/miniconda3/envs/gpaw22/lib/python3.10/site-packages/numpy (version 1.23.0)
scipy:  /groups/kemi/thorkong/miniconda3/envs/gpaw22/lib/python3.10/site-packages/scipy (version 1.8.1)
libxc:  5.2.3
units:  Angstrom and eV
cores: 32
OpenMP: True
OMP_NUM_THREADS: 1

Input parameters:
  basis: dzp
  kpts: [4 4 1]
  mode: {ecut: 600.0,
         name: pw}
  xc: BEEF-vdW

System changes: positions, numbers, cell, pbc, initial_charges, initial_magmoms 

Initialize ...

Cu-setup:
  name: Copper
  id: f1c4d45d90492f1bbfdcb091e8418fdf
  Z: 29.0
  valence: 11
  core: 18
  charge: 0.0
  file: /groups/kemi/thorkong/miniconda3/envs/gpaw22/share/gpaw/Cu.PBE.gz
  compensation charges: gauss, rc=0.33, lmax=2
  cutoffs: 2.06(filt), 2.43(core),
  valence states:
                energy  radius
    4s(1.00)    -4.609   1.164
    4p(0.00)    -0.698   1.164
    3d(10.00)    -5.039   1.058
    *s          22.603   1.164
    *p          26.513   1.164
    *d          22.172   1.058

  LCAO basis set for Cu:
    Name: dzp
    File: /groups/kemi/thorkong/miniconda3/envs/gpaw22/share/gpaw/Cu.dzp.basis.gz
    Number of radial functions: 5
    Number of spherical harmonics: 15
      l=0, rc=8.9688 Bohr: 4s-sz confined orbital
      l=2, rc=5.1719 Bohr: 3d-sz confined orbital
      l=0, rc=5.3281 Bohr: 4s-dz split-valence wave
      l=2, rc=3.1406 Bohr: 3d-dz split-valence wave
      l=1, rc=8.9688 Bohr: p-type Gaussian polarization

Cl-setup:
  name: Chlorine
  id: 726897f06f34e53cf8e33b5885a02604
  Z: 17.0
  valence: 7
  core: 10
  charge: 0.0
  file: /groups/kemi/thorkong/miniconda3/envs/gpaw22/share/gpaw/Cl.PBE.gz
  compensation charges: gauss, rc=0.25, lmax=2
  cutoffs: 1.40(filt), 1.49(core),
  valence states:
                energy  radius
    3s(2.00)   -20.689   0.794
    3p(5.00)    -8.594   0.794
    *s           6.523   0.794
    *p          18.617   0.794
    *d           0.000   0.794

  LCAO basis set for Cl:
    Name: dzp
    File: /groups/kemi/thorkong/miniconda3/envs/gpaw22/share/gpaw/Cl.dzp.basis.gz
    Number of radial functions: 5
    Number of spherical harmonics: 13
      l=0, rc=5.1719 Bohr: 3s-sz confined orbital
      l=1, rc=6.2656 Bohr: 3p-sz confined orbital
      l=0, rc=2.8281 Bohr: 3s-dz split-valence wave
      l=1, rc=3.5156 Bohr: 3p-dz split-valence wave
      l=2, rc=6.2656 Bohr: d-type Gaussian polarization

Reference energy: -3367094.026518

Spin-paired calculation

Convergence criteria:
 Maximum [total energy] change in last 3 cyles: 0.0005 eV / electron
 Maximum integral of absolute [dens]ity change: 0.0001 electrons / valence electron
 Maximum integral of absolute [eigenst]ate change: 4e-08 eV^2 / valence electron
 Maximum number of scf [iter]ations: 333
 (Square brackets indicate name in SCF output, whereas a 'c' in
 the SCF output indicates the quantity has converged.)

Symmetries present (total): 1

  ( 1  0  0)
  ( 0  1  0)
  ( 0  0  1)

16 k-points: 4 x 4 x 1 Monkhorst-Pack grid
8 k-points in the irreducible part of the Brillouin zone
       k-points in crystal coordinates                weights
   0:     0.12500000   -0.37500000    0.00000000          2/16
   1:     0.12500000   -0.12500000    0.00000000          2/16
   2:     0.12500000    0.12500000    0.00000000          2/16
   3:     0.12500000    0.37500000    0.00000000          2/16
   4:     0.37500000   -0.37500000    0.00000000          2/16
   5:     0.37500000   -0.12500000    0.00000000          2/16
   6:     0.37500000    0.12500000    0.00000000          2/16
   7:     0.37500000    0.37500000    0.00000000          2/16

Wave functions: Plane wave expansion
  Cutoff energy: 600.000 eV
  Number of coefficients (min, max): 66642, 66743
  Pulay-stress correction: 0.000000 eV/Ang^3 (de/decut=0.000000)
  Using FFTW library
  ScaLapack parameters: grid=2x2, blocksize=64
  Wavefunction extrapolation:
    Improved wavefunction reuse through dual PAW basis 

Occupation numbers: Fermi-Dirac: width=0.1000 eV
 

Eigensolver
   Davidson(niter=2) 

Densities:
  Coarse grid: 45*42*196 grid
  Fine grid: 90*84*392 grid
  Total Charge: 0.000000 

Density mixing:
  Method: separate
  Backend: pulay
  Linear mixing parameter: 0.05
  Mixing with 5 old densities
  Damping of long wave oscillations: 50 

Hamiltonian:
  XC and Coulomb potentials evaluated on a 90*84*392 grid
  Using the BEEF-vdW Exchange-Correlation functional
  External potential:
    NoExternalPotential
 

XC parameters: BEEF-vdW with 2 nearest neighbor stencil

Memory estimate:
  Process memory now: 251.68 MiB
  Calculator: 1189.99 MiB
    Density: 47.57 MiB
      Arrays: 18.37 MiB
      Localized functions: 22.13 MiB
      Mixer: 7.07 MiB
    Hamiltonian: 12.55 MiB
      Arrays: 12.01 MiB
      XC: 0.00 MiB
      Poisson: 0.00 MiB
      vbar: 0.54 MiB
    Wavefunctions: 1129.88 MiB
      Arrays psit_nG: 531.61 MiB
      Eigensolver: 578.30 MiB
      Projections: 2.84 MiB
      Projectors: 2.55 MiB
      PW-descriptor: 14.58 MiB

Total number of cores used: 32
Parallelization over k-points: 8
Domain decomposition: 1 x 1 x 4
                      2 x 2 x 8 (xc only)

Number of atoms: 82
Number of atomic orbitals: 1210
Number of bands in calculation: 522
Number of valence electrons: 862
Bands to converge: occupied

... initialized

Initializing position-dependent things.

Density initialized from atomic densities
Creating initial wave functions:
  522 bands from LCAO basis set

      .------------------.  
     /|                  |  
    / |                  |  
   /  |                  |  
  /   |                  |  
 *    |                  |  
 |    |                  |  
 |    |                  |  
 |    |                  |  
 |    |                  |  
 |    |     Cl      Cl   |  
 |    |                  |  
 |Cl  Cl        Cl       |  
 |    |                  |  
 |    |  Cu    Cu    Cu  |  
 |    |                  |  
 |  CuCu   CCu   CuCu    |  
 |    |  Cu    Cu  CuCu  |  
 |    |                  |  
 |Cu  CuCu  CuCu CuCu    |  
 |  Cu|  CuCu  Cu  CuCu  |  
 |    |                  |  
 |Cu  CuCu  Cu     Cu    |  
 |  Cu|CuCuCu  CuCu  Cu  |  
 |    |                  |  
 |Cu  | Cu               |  
 |  CuCu CCuCu CuCuCuCu  |  
 |    |                  |  
 |    | Cu    Cu         |  
 |  CuCuCuCuCu CuCuCu    |  
 |    |            CuCu  |  
 |    |                  |  
 |CuCuCuCu CCuCu CuCu    |  
 |    | Cl      Cl       |  
 |    |                  |  
 |Cu  | Cu               |  
 |    |Cl        Cl  Cl  |  
 |    |                  |  
 |    |                  |  
 |    |                  |  
 |    |                  |  
 |    |                  |  
 |    .------------------.  
 |   /                  /   
 |  /                  /    
 | /                  /     
 |/                  /      
 *------------------*       

Positions:
   0 Cu     2.909421    0.015483   10.061248    ( 0.0000,  0.0000,  0.0000)
   1 Cu     1.598697    1.904002   11.266617    ( 0.0000,  0.0000,  0.0000)
   2 Cu     4.184549    1.902560   11.275764    ( 0.0000,  0.0000,  0.0000)
   3 Cu     0.277165    0.085004   10.039241    ( 0.0000,  0.0000,  0.0000)
   4 Cu     0.263496    0.006451   12.609932    ( 0.0000,  0.0000,  0.0000)
   5 Cu     4.199908    1.861631   13.916106    ( 0.0000,  0.0000,  0.0000)
   6 Cu     1.578023    1.855597   13.904158    ( 0.0000,  0.0000,  0.0000)
   7 Cu     2.891959    0.003530   12.616396    ( 0.0000,  0.0000,  0.0000)
   8 Cu     2.894368    0.007042   15.232657    ( 0.0000,  0.0000,  0.0000)
   9 Cu     1.582716    1.848110   16.536455    ( 0.0000,  0.0000,  0.0000)
  10 Cu     4.206454    1.853006   16.539784    ( 0.0000,  0.0000,  0.0000)
  11 Cu     0.274402   -0.003320   15.224311    ( 0.0000,  0.0000,  0.0000)
  12 Cu     0.280511    0.001447   17.852533    ( 0.0000,  0.0000,  0.0000)
  13 Cu     4.211485    1.852197   19.155588    ( 0.0000,  0.0000,  0.0000)
  14 Cu     1.592544    1.847067   19.167490    ( 0.0000,  0.0000,  0.0000)
  15 Cu     2.900923    0.000741   17.853549    ( 0.0000,  0.0000,  0.0000)
  16 Cu     2.901317    0.000307   20.467356    ( 0.0000,  0.0000,  0.0000)
  17 Cu     1.588048    1.847104   21.809512    ( 0.0000,  0.0000,  0.0000)
  18 Cu     4.214814    1.830554   21.765523    ( 0.0000,  0.0000,  0.0000)
  19 Cu     0.286917    0.007804   20.487823    ( 0.0000,  0.0000,  0.0000)
  20 Cu     0.271087    0.034003   23.153462    ( 0.0000,  0.0000,  0.0000)
  21 Cu     4.196409    1.779017   24.402563    ( 0.0000,  0.0000,  0.0000)
  22 Cu     1.574094    1.911951   24.494014    ( 0.0000,  0.0000,  0.0000)
  23 Cu     2.893468    0.033919   23.084779    ( 0.0000,  0.0000,  0.0000)
  24 Cu     2.907762    3.773361    9.989721    ( 0.0000,  0.0000,  0.0000)
  25 Cu     1.548709    5.547319   11.266546    ( 0.0000,  0.0000,  0.0000)
  26 Cu     4.208257    5.517460   11.309046    ( 0.0000,  0.0000,  0.0000)
  27 Cu     0.238921    3.653673    9.860954    ( 0.0000,  0.0000,  0.0000)
  28 Cu     0.273333    3.709007   12.579248    ( 0.0000,  0.0000,  0.0000)
  29 Cu     4.200447    5.550351   13.924137    ( 0.0000,  0.0000,  0.0000)
  30 Cu     1.585035    5.558989   13.904915    ( 0.0000,  0.0000,  0.0000)
  31 Cu     2.886985    3.720533   12.626019    ( 0.0000,  0.0000,  0.0000)
  32 Cu     2.890579    3.698044   15.234979    ( 0.0000,  0.0000,  0.0000)
  33 Cu     1.589744    5.552430   16.534553    ( 0.0000,  0.0000,  0.0000)
  34 Cu     4.201914    5.549617   16.537205    ( 0.0000,  0.0000,  0.0000)
  35 Cu     0.280474    3.707912   15.221492    ( 0.0000,  0.0000,  0.0000)
  36 Cu     0.277821    3.696977   17.853302    ( 0.0000,  0.0000,  0.0000)
  37 Cu     4.207831    5.543256   19.158567    ( 0.0000,  0.0000,  0.0000)
  38 Cu     1.588547    5.548711   19.144551    ( 0.0000,  0.0000,  0.0000)
  39 Cu     2.896395    3.697191   17.850622    ( 0.0000,  0.0000,  0.0000)
  40 Cu     2.901735    3.688665   20.474921    ( 0.0000,  0.0000,  0.0000)
  41 Cu     1.592826    5.545283   21.712515    ( 0.0000,  0.0000,  0.0000)
  42 Cu     4.209218    5.547388   21.776282    ( 0.0000,  0.0000,  0.0000)
  43 Cu     0.281899    3.683753   20.469985    ( 0.0000,  0.0000,  0.0000)
  44 Cu     0.286309    3.669293   23.100547    ( 0.0000,  0.0000,  0.0000)
  45 Cu     4.192930    5.536307   24.332761    ( 0.0000,  0.0000,  0.0000)
  46 Cu     1.630834    5.563387   24.178972    ( 0.0000,  0.0000,  0.0000)
  47 Cu     2.918453    3.648119   23.115459    ( 0.0000,  0.0000,  0.0000)
  48 Cu     6.814750    1.882361   11.293000    ( 0.0000,  0.0000,  0.0000)
  49 Cu     5.470680   -0.015580   10.212321    ( 0.0000,  0.0000,  0.0000)
  50 Cu     5.508941    0.005277   12.678597    ( 0.0000,  0.0000,  0.0000)
  51 Cu     6.819640    1.866927   13.922544    ( 0.0000,  0.0000,  0.0000)
  52 Cu     6.825098    1.853430   16.539074    ( 0.0000,  0.0000,  0.0000)
  53 Cu     5.514058    0.001715   15.246701    ( 0.0000,  0.0000,  0.0000)
  54 Cu     5.512991   -0.002188   17.856891    ( 0.0000,  0.0000,  0.0000)
  55 Cu     6.821661    1.842475   19.170790    ( 0.0000,  0.0000,  0.0000)
  56 Cu     6.828179    1.842546   21.813582    ( 0.0000,  0.0000,  0.0000)
  57 Cu     5.516310   -0.008349   20.487081    ( 0.0000,  0.0000,  0.0000)
  58 Cu     5.553665    0.004284   23.126284    ( 0.0000,  0.0000,  0.0000)
  59 Cu     6.865124    1.899079   24.533111    ( 0.0000,  0.0000,  0.0000)
  60 Cu     6.831465    5.517406   11.240464    ( 0.0000,  0.0000,  0.0000)
  61 Cu     5.529320    3.642958    9.900791    ( 0.0000,  0.0000,  0.0000)
  62 Cu     5.513317    3.703887   12.583583    ( 0.0000,  0.0000,  0.0000)
  63 Cu     6.814571    5.542990   13.905548    ( 0.0000,  0.0000,  0.0000)
  64 Cu     6.822403    5.548938   16.540655    ( 0.0000,  0.0000,  0.0000)
  65 Cu     5.509703    3.703285   15.224842    ( 0.0000,  0.0000,  0.0000)
  66 Cu     5.520021    3.702194   17.855336    ( 0.0000,  0.0000,  0.0000)
  67 Cu     6.827972    5.553790   19.168882    ( 0.0000,  0.0000,  0.0000)
  68 Cu     6.837964    5.544715   21.784147    ( 0.0000,  0.0000,  0.0000)
  69 Cu     5.523290    3.695276   20.488016    ( 0.0000,  0.0000,  0.0000)
  70 Cu     5.504325    3.648679   23.127134    ( 0.0000,  0.0000,  0.0000)
  71 Cu     6.823509    5.469388   24.357348    ( 0.0000,  0.0000,  0.0000)
  72 Cl     0.700281    4.197962   26.246543    ( 0.0000,  0.0000,  0.0000)
  73 Cl     5.164758    3.622009   26.277790    ( 0.0000,  0.0000,  0.0000)
  74 Cl     0.167290    1.496324   27.523448    ( 0.0000,  0.0000,  0.0000)
  75 Cl     2.567480   -0.118146   26.172642    ( 0.0000,  0.0000,  0.0000)
  76 Cl     5.714139   -0.181035   26.223320    ( 0.0000,  0.0000,  0.0000)
  77 Cl     6.395312    1.359303    8.151412    ( 0.0000,  0.0000,  0.0000)
  78 Cl     1.937540    1.931291    8.116949    ( 0.0000,  0.0000,  0.0000)
  79 Cl     1.387359    5.742975    8.172597    ( 0.0000,  0.0000,  0.0000)
  80 Cl     4.531289    5.666930    8.217829    ( 0.0000,  0.0000,  0.0000)
  81 Cl     6.942006    4.058693    6.875415    ( 0.0000,  0.0000,  0.0000)

Unit cell:
           periodic     x           y           z      points  spacing
  1. axis:    yes    7.851007    0.000000    0.000000    45     0.1745
  2. axis:    yes    0.000000    7.402000    0.000000    42     0.1762
  3. axis:    yes    0.000000    0.000000   34.393512   196     0.1755

  Lengths:   7.851007   7.402000  34.393512
  Angles:   90.000000  90.000000  90.000000

Effective grid spacing dv^(1/3) = 0.1754

     iter     time        total  log10-change:
                         energy  eigst   dens
iter:   1 00:58:14 -6706.780771
iter:   2 00:59:30 -11253.289522  +2.24  -0.61
iter:   3 01:00:51 -5698.619298  +2.22  -0.33
iter:   4 01:02:05 -5897.503665  +0.71  -1.08
iter:   5 01:03:20 -6060.236186  -0.40  -1.26
iter:   6 01:04:35 -5863.872833  -1.41  -0.99
iter:   7 01:05:50 -6124.071334  -1.49  -1.28
iter:   8 01:07:05 -5866.945276  -0.92  -0.97
iter:   9 01:08:20 -5862.319835  -1.03  -1.39
iter:  10 01:09:39 -5824.217590  -2.30  -1.29
iter:  11 01:10:55 -5820.802878  -2.46  -1.54
iter:  12 01:12:08 -5817.662092  -2.39  -1.56
iter:  13 01:13:23 -5839.761878  -1.60  -1.61
iter:  14 01:14:38 -5839.511862  -2.99  -1.53
iter:  15 01:16:00 -5834.615303  -2.37  -1.53
iter:  16 01:17:21 -5840.527340  -3.15  -1.52
iter:  17 01:18:47 -5815.756866  -2.11  -1.49
iter:  18 01:20:02 -5822.650712  -2.95  -1.69
iter:  19 01:21:18 -5817.405842  -2.81  -1.59
iter:  20 01:22:33 -5816.065599  -3.33  -1.66
iter:  21 01:23:54 -5816.915696  -2.94  -1.71
iter:  22 01:25:11 -5819.104906  -3.05  -1.66
iter:  23 01:26:27 -5817.435016  -2.46  -1.68
iter:  24 01:27:47 -5817.002862  -2.46  -1.79
iter:  25 01:29:10 -5822.894324  -2.53  -1.94
iter:  26 01:30:28 -5815.523949  -3.18  -1.77
iter:  27 01:31:46 -5815.956118  -3.20  -2.00
iter:  28 01:33:04 -5816.082633  -2.95  -2.10
iter:  29 01:34:21 -5815.360298  -3.80  -2.04
iter:  30 01:35:39 -5815.430281  -3.90  -2.11
iter:  31 01:36:57 -5814.669951  -3.67  -2.11
iter:  32 01:38:14 -5814.635871  -4.38  -2.22
iter:  33 01:39:50 -5814.620196c -4.57  -2.23
iter:  34 01:41:25 -5815.128555  -3.63  -2.25
iter:  35 01:42:43 -5815.357626  -3.36  -2.24
iter:  36 01:44:00 -5815.265825c -4.15  -2.09
iter:  37 01:45:16 -5814.675804  -3.56  -2.20
iter:  38 01:46:34 -5814.637103  -4.38  -2.49
iter:  39 01:47:52 -5814.617766c -4.61  -2.76
iter:  40 01:49:09 -5814.692367c -4.30  -2.85
iter:  41 01:50:26 -5814.656589c -5.46  -2.74
iter:  42 01:51:43 -5814.619398c -5.07  -2.86
iter:  43 01:53:03 -5814.618218c -5.89  -3.23
iter:  44 01:54:19 -5814.620408c -5.52  -3.25
iter:  45 01:55:36 -5814.615491c -6.03  -3.43
iter:  46 01:57:02 -5814.625497c -5.43  -3.60
iter:  47 01:58:28 -5814.617373c -5.30  -3.13
iter:  48 01:59:44 -5814.613888c -6.41  -3.52
iter:  49 02:01:15 -5814.612283c -6.48  -3.65
iter:  50 02:02:32 -5814.616205c -6.25  -3.65
iter:  51 02:03:55 -5814.615060c -6.59  -3.67
iter:  52 02:05:27 -5814.614175c -6.89  -3.77
iter:  53 02:06:44 -5814.613826c -7.26  -3.73
iter:  54 02:08:03 -5814.614383c -7.66c -3.73
iter:  55 02:09:23 -5814.615362c -7.20  -3.74
iter:  56 02:10:55 -5814.614183c -5.98  -3.77
iter:  57 02:12:24 -5814.613602c -6.40  -3.60
iter:  58 02:13:46 -5814.612921c -7.16  -4.01c
iter:  59 02:15:03 -5814.612928c -6.97  -4.08c
iter:  60 02:16:26 -5814.612656c -6.84  -3.98
iter:  61 02:17:41 -5814.612786c -8.26c -4.30c

Converged after 61 iterations.

Dipole moment: (-84.872680, 14.625877, -0.003327) |e|*Ang

Energy contributions relative to reference atoms: (reference = -3367094.026518)

Kinetic:       +546.226979
Potential:     -606.262105
External:        +0.000000
XC:            -5753.040607
Entropy (-ST):   -1.034647
Local:           -1.019730
--------------------------
Free energy:   -5815.130110
Extrapolated:  -5814.612786

Showing only first 2 kpts
 Kpt  Band  Eigenvalues  Occupancy
  0   429     -0.02441    1.40105
  0   430      0.11786    0.72112
  0   431      0.17832    0.47099
  0   432      0.21386    0.35514

  1   429     -0.18423    1.84083
  1   430     -0.16164    1.80443
  1   431     -0.15034    1.78357
  1   432     -0.06908    1.57048


Fermi level: 0.06057

No gap

Forces in eV/Ang:
  0 Cu   -0.24128   -0.08090   -1.00602
  1 Cu   -0.01140   -0.01912    0.03098
  2 Cu   -0.01112    0.00644    0.20551
  3 Cu   -0.03872   -0.20177   -1.08344
  4 Cu    0.02420    0.02104   -0.21756
  5 Cu   -0.00912    0.00855    0.08526
  6 Cu    0.02215   -0.00404    0.06804
  7 Cu    0.00384    0.02323   -0.20616
  8 Cu   -0.00014   -0.01425   -0.08281
  9 Cu    0.00395    0.00445    0.05390
 10 Cu    0.00696    0.00444    0.05355
 11 Cu    0.00455    0.01601   -0.05378
 12 Cu    0.00315   -0.00887   -0.04662
 13 Cu    0.00473   -0.00805    0.07302
 14 Cu   -0.01207   -0.00746    0.05967
 15 Cu   -0.00936    0.00323   -0.06692
 16 Cu   -0.01119    0.01005   -0.08243
 17 Cu    0.01351    0.00616    0.12329
 18 Cu    0.00617    0.00017    0.22176
 19 Cu   -0.02763   -0.00607   -0.07723
 20 Cu   -0.02520    0.07987   -0.17091
 21 Cu    0.20727    0.23053    0.85009
 22 Cu    0.06120   -0.26283    0.60034
 23 Cu    0.04754   -0.00013    0.02514
 24 Cu   -0.20944   -0.23271   -0.85034
 25 Cu    0.03806    0.03155   -0.05671
 26 Cu   -0.04691   -0.00015   -0.02703
 27 Cu    0.27899    0.11984   -0.72648
 28 Cu    0.01435   -0.02086   -0.17634
 29 Cu    0.01132   -0.00927    0.08744
 30 Cu   -0.03897   -0.00502    0.06772
 31 Cu   -0.00511   -0.00118   -0.21978
 32 Cu   -0.00358    0.00913   -0.06884
 33 Cu   -0.00643    0.00556    0.03500
 34 Cu    0.00907   -0.00303    0.07156
 35 Cu   -0.00706   -0.00543   -0.06061
 36 Cu    0.01135   -0.00034   -0.07013
 37 Cu    0.00066    0.01512    0.08606
 38 Cu    0.00771   -0.00318    0.04458
 39 Cu   -0.00728   -0.00396   -0.04897
 40 Cu    0.00994   -0.00714   -0.08321
 41 Cu    0.01132    0.01994    0.17635
 42 Cu   -0.00193   -0.02162    0.20581
 43 Cu    0.00725    0.00854   -0.06092
 44 Cu   -0.00136   -0.03668   -0.00480
 45 Cu    0.23361    0.07659    1.00008
 46 Cu   -0.23628   -0.14521    1.52662
 47 Cu    0.01053   -0.00557   -0.20461
 48 Cu    0.00287    0.03638    0.00157
 49 Cu    0.23755    0.15755   -1.52604
 50 Cu   -0.01074   -0.01925   -0.17274
 51 Cu   -0.00673   -0.00776    0.06237
 52 Cu   -0.01206   -0.00004    0.07198
 53 Cu   -0.00816    0.00366   -0.04125
 54 Cu    0.00659   -0.00527   -0.03217
 55 Cu    0.00700    0.00596    0.06288
 56 Cu   -0.01378    0.01950    0.17647
 57 Cu    0.04079    0.00506   -0.06615
 58 Cu   -0.03913   -0.03226    0.05456
 59 Cu   -0.28508   -0.12382    0.72339
 60 Cu    0.02510   -0.07925    0.17101
 61 Cu   -0.06096    0.25696   -0.60748
 62 Cu   -0.01175   -0.00608   -0.12338
 63 Cu    0.02914    0.00602    0.07761
 64 Cu   -0.00404    0.00913    0.04638
 65 Cu    0.01180    0.00830   -0.05925
 66 Cu   -0.00394   -0.00388   -0.05124
 67 Cu   -0.00492   -0.01543    0.05455
 68 Cu   -0.02293   -0.02066    0.21744
 69 Cu   -0.01985    0.00453   -0.06501
 70 Cu    0.00896    0.01780   -0.03337
 71 Cu    0.04640    0.19000    1.07812
 72 Cl    0.26929    0.35164   -1.50682
 73 Cl   -0.43359   -0.27644   -1.50090
 74 Cl   -0.06411   -0.01459   -0.40531
 75 Cl   -0.27916    0.12296   -1.37904
 76 Cl    0.47633   -0.14399   -1.40715
 77 Cl   -0.26830   -0.35833    1.50187
 78 Cl    0.42839    0.28595    1.49418
 79 Cl   -0.47474    0.14796    1.40440
 80 Cl    0.28170   -0.12718    1.37519
 81 Cl    0.06753    0.01603    0.40627

System changes: positions 

Initializing position-dependent things.

Density initialized from wave functions
      .------------------.  
     /|                  |  
    / |                  |  
   /  |                  |  
  /   |                  |  
 *    |                  |  
 |    |                  |  
 |    |                  |  
 |    |                  |  
 |    |                  |  
 |    |     Cl      Cl   |  
 |    |                  |  
 |Cl  Cl                 |  
 |    |        CCl   Cu  |  
 |    |  Cu              |  
 |    |                  |  
 |  CuCu   CCu   CuCu    |  
 |    |  Cu    Cu  CuCu  |  
 |    |                  |  
 |Cu  CuCu  CuCu CuCu    |  
 |  Cu|  CuCu  Cu  CuCu  |  
 |    |                  |  
 |Cu  CuCu  Cu     Cu    |  
 |  Cu|CuCuCu  CuCu  Cu  |  
 |    |                  |  
 |Cu  | Cu               |  
 |  CuCu CCuCu CuCuCuCu  |  
 |    |                  |  
 |    | Cu    Cu         |  
 |  CuCu CCuCu CuCuCu    |  
 |    |              Cu  |  
 |    |                  |  
 |Cu  CuCu CCuCu   Cu    |  
 |  Cu| Cl      CCu      |  
 |    |                  |  
 |Cu  | Cu    Cu         |  
 |    |Cl        Cl  Cl  |  
 |    |                  |  
 |    |                  |  
 |    |                  |  
 |    |                  |  
 |    |                  |  
 |    .------------------.  
 |   /                  /   
 |  /                  /    
 | /                  /     
 |/                  /      
 *------------------*       

Positions:
   0 Cu     2.885293    0.007393    9.960646    ( 0.0000,  0.0000,  0.0000)
   1 Cu     1.597557    1.902090   11.269715    ( 0.0000,  0.0000,  0.0000)
   2 Cu     4.183437    1.903204   11.296315    ( 0.0000,  0.0000,  0.0000)
   3 Cu     0.273293    0.064827    9.930897    ( 0.0000,  0.0000,  0.0000)
   4 Cu     0.265916    0.008555   12.588176    ( 0.0000,  0.0000,  0.0000)
   5 Cu     4.198996    1.862486   13.924632    ( 0.0000,  0.0000,  0.0000)
   6 Cu     1.580238    1.855193   13.910962    ( 0.0000,  0.0000,  0.0000)
   7 Cu     2.892343    0.005853   12.595780    ( 0.0000,  0.0000,  0.0000)
   8 Cu     2.894354    0.005617   15.224376    ( 0.0000,  0.0000,  0.0000)
   9 Cu     1.583111    1.848555   16.541845    ( 0.0000,  0.0000,  0.0000)
  10 Cu     4.207150    1.853450   16.545139    ( 0.0000,  0.0000,  0.0000)
  11 Cu     0.274857   -0.001719   15.218933    ( 0.0000,  0.0000,  0.0000)
  12 Cu     0.280826    0.000560   17.847871    ( 0.0000,  0.0000,  0.0000)
  13 Cu     4.211958    1.851392   19.162890    ( 0.0000,  0.0000,  0.0000)
  14 Cu     1.591337    1.846321   19.173457    ( 0.0000,  0.0000,  0.0000)
  15 Cu     2.899987    0.001064   17.846857    ( 0.0000,  0.0000,  0.0000)
  16 Cu     2.900198    0.001312   20.459113    ( 0.0000,  0.0000,  0.0000)
  17 Cu     1.589399    1.847720   21.821841    ( 0.0000,  0.0000,  0.0000)
  18 Cu     4.215431    1.830571   21.787699    ( 0.0000,  0.0000,  0.0000)
  19 Cu     0.284154    0.007197   20.480100    ( 0.0000,  0.0000,  0.0000)
  20 Cu     0.268567    0.041990   23.136371    ( 0.0000,  0.0000,  0.0000)
  21 Cu     4.217136    1.802070   24.487572    ( 0.0000,  0.0000,  0.0000)
  22 Cu     1.580214    1.885668   24.554048    ( 0.0000,  0.0000,  0.0000)
  23 Cu     2.898222    0.033906   23.087293    ( 0.0000,  0.0000,  0.0000)
  24 Cu     2.886818    3.750090    9.904687    ( 0.0000,  0.0000,  0.0000)
  25 Cu     1.552515    5.550474   11.260875    ( 0.0000,  0.0000,  0.0000)
  26 Cu     4.203566    5.517445   11.306343    ( 0.0000,  0.0000,  0.0000)
  27 Cu     0.266820    3.665657    9.788306    ( 0.0000,  0.0000,  0.0000)
  28 Cu     0.274768    3.706921   12.561614    ( 0.0000,  0.0000,  0.0000)
  29 Cu     4.201579    5.549424   13.932881    ( 0.0000,  0.0000,  0.0000)
  30 Cu     1.581138    5.558487   13.911687    ( 0.0000,  0.0000,  0.0000)
  31 Cu     2.886474    3.720415   12.604041    ( 0.0000,  0.0000,  0.0000)
  32 Cu     2.890221    3.698957   15.228095    ( 0.0000,  0.0000,  0.0000)
  33 Cu     1.589101    5.552986   16.538053    ( 0.0000,  0.0000,  0.0000)
  34 Cu     4.202821    5.549314   16.544361    ( 0.0000,  0.0000,  0.0000)
  35 Cu     0.279768    3.707369   15.215431    ( 0.0000,  0.0000,  0.0000)
  36 Cu     0.278956    3.696943   17.846289    ( 0.0000,  0.0000,  0.0000)
  37 Cu     4.207897    5.544768   19.167173    ( 0.0000,  0.0000,  0.0000)
  38 Cu     1.589318    5.548393   19.149009    ( 0.0000,  0.0000,  0.0000)
  39 Cu     2.895667    3.696795   17.845725    ( 0.0000,  0.0000,  0.0000)
  40 Cu     2.902729    3.687951   20.466600    ( 0.0000,  0.0000,  0.0000)
  41 Cu     1.593958    5.547277   21.730150    ( 0.0000,  0.0000,  0.0000)
  42 Cu     4.209025    5.545226   21.796863    ( 0.0000,  0.0000,  0.0000)
  43 Cu     0.282624    3.684607   20.463893    ( 0.0000,  0.0000,  0.0000)
  44 Cu     0.286173    3.665625   23.100067    ( 0.0000,  0.0000,  0.0000)
  45 Cu     4.216291    5.543966   24.432769    ( 0.0000,  0.0000,  0.0000)
  46 Cu     1.607206    5.548866   24.331634    ( 0.0000,  0.0000,  0.0000)
  47 Cu     2.919506    3.647562   23.094998    ( 0.0000,  0.0000,  0.0000)
  48 Cu     6.815037    1.885999   11.293157    ( 0.0000,  0.0000,  0.0000)
  49 Cu     5.494435    0.000175   10.059717    ( 0.0000,  0.0000,  0.0000)
  50 Cu     5.507867    0.003352   12.661323    ( 0.0000,  0.0000,  0.0000)
  51 Cu     6.818967    1.866151   13.928781    ( 0.0000,  0.0000,  0.0000)
  52 Cu     6.823892    1.853426   16.546272    ( 0.0000,  0.0000,  0.0000)
  53 Cu     5.513242    0.002081   15.242576    ( 0.0000,  0.0000,  0.0000)
  54 Cu     5.513650   -0.002715   17.853674    ( 0.0000,  0.0000,  0.0000)
  55 Cu     6.822361    1.843071   19.177078    ( 0.0000,  0.0000,  0.0000)
  56 Cu     6.826801    1.844496   21.831229    ( 0.0000,  0.0000,  0.0000)
  57 Cu     5.520389   -0.007843   20.480466    ( 0.0000,  0.0000,  0.0000)
  58 Cu     5.549752    0.001058   23.131740    ( 0.0000,  0.0000,  0.0000)
  59 Cu     6.836616    1.886697   24.605450    ( 0.0000,  0.0000,  0.0000)
  60 Cu     6.833975    5.509481   11.257565    ( 0.0000,  0.0000,  0.0000)
  61 Cu     5.523224    3.668654    9.840043    ( 0.0000,  0.0000,  0.0000)
  62 Cu     5.512142    3.703279   12.571245    ( 0.0000,  0.0000,  0.0000)
  63 Cu     6.817485    5.543592   13.913309    ( 0.0000,  0.0000,  0.0000)
  64 Cu     6.821999    5.549851   16.545293    ( 0.0000,  0.0000,  0.0000)
  65 Cu     5.510883    3.704115   15.218917    ( 0.0000,  0.0000,  0.0000)
  66 Cu     5.519627    3.701806   17.850212    ( 0.0000,  0.0000,  0.0000)
  67 Cu     6.827480    5.552247   19.174337    ( 0.0000,  0.0000,  0.0000)
  68 Cu     6.835671    5.542649   21.805891    ( 0.0000,  0.0000,  0.0000)
  69 Cu     5.521305    3.695729   20.481515    ( 0.0000,  0.0000,  0.0000)
  70 Cu     5.505221    3.650459   23.123797    ( 0.0000,  0.0000,  0.0000)
  71 Cu     6.828149    5.488388   24.465160    ( 0.0000,  0.0000,  0.0000)
  72 Cl     0.727210    4.233126   26.095861    ( 0.0000,  0.0000,  0.0000)
  73 Cl     5.121399    3.594365   26.127700    ( 0.0000,  0.0000,  0.0000)
  74 Cl     0.160879    1.494865   27.482917    ( 0.0000,  0.0000,  0.0000)
  75 Cl     2.539564   -0.105850   26.034738    ( 0.0000,  0.0000,  0.0000)
  76 Cl     5.761772   -0.195434   26.082605    ( 0.0000,  0.0000,  0.0000)
  77 Cl     6.368482    1.323470    8.301599    ( 0.0000,  0.0000,  0.0000)
  78 Cl     1.980379    1.959886    8.266367    ( 0.0000,  0.0000,  0.0000)
  79 Cl     1.339885    5.757771    8.313037    ( 0.0000,  0.0000,  0.0000)
  80 Cl     4.559459    5.654212    8.355348    ( 0.0000,  0.0000,  0.0000)
  81 Cl     6.948759    4.060296    6.916042    ( 0.0000,  0.0000,  0.0000)

Unit cell:
           periodic     x           y           z      points  spacing
  1. axis:    yes    7.851007    0.000000    0.000000    45     0.1745
  2. axis:    yes    0.000000    7.402000    0.000000    42     0.1762
  3. axis:    yes    0.000000    0.000000   34.393512   196     0.1755

  Lengths:   7.851007   7.402000  34.393512
  Angles:   90.000000  90.000000  90.000000

Effective grid spacing dv^(1/3) = 0.1754

     iter     time        total  log10-change:
                         energy  eigst   dens
iter:   1 02:19:56 -5903.217598  -1.17
iter:   2 02:21:22 -6115.085888  +0.50  -1.14
iter:   3 02:22:44 -6057.203992  +0.75  -0.95
iter:   4 02:24:04 -6233.467469  +0.00  -1.07
iter:   5 02:25:20 -5866.699851  -1.35  -0.90
iter:   6 02:26:36 -5902.465248  -1.99  -1.55
iter:   7 02:27:54 -5850.819755  -2.11  -1.35
iter:   8 02:29:11 -5834.456542  -1.37  -1.67
iter:   9 02:30:29 -5826.140804  -2.32  -1.72
iter:  10 02:31:44 -5828.202819  -2.84  -1.83
iter:  11 02:33:01 -5829.538492  -2.74  -1.80
iter:  12 02:34:18 -5826.256166  -2.62  -1.78
iter:  13 02:35:48 -5838.699355  -1.81  -1.90
iter:  14 02:37:04 -5826.554624  -2.37  -1.58
iter:  15 02:38:29 -5819.880938  -2.73  -1.76
iter:  16 02:40:07 -5819.009639  -2.73  -2.02
iter:  17 02:41:28 -5819.828908  -3.00  -2.21
iter:  18 02:42:44 -5820.296390  -4.29  -2.00
iter:  19 02:44:00 -5819.524053  -4.34  -1.96
iter:  20 02:45:25 -5818.165880  -3.34  -2.06
iter:  21 02:46:52 -5818.467543  -3.14  -2.28
iter:  22 02:48:20 -5817.589048  -3.40  -2.10
iter:  23 02:49:38 -5817.747886  -4.65  -2.42
iter:  24 02:50:56 -5817.518872c -3.29  -2.29
iter:  25 02:52:32 -5817.600701c -3.96  -2.67
iter:  26 02:53:49 -5817.513856c -4.13  -2.56
iter:  27 02:55:04 -5817.646991c -3.84  -2.69
iter:  28 02:56:19 -5817.472124c -3.94  -2.63
iter:  29 02:57:35 -5817.466772c -5.02  -2.90
iter:  30 02:58:52 -5817.479311c -5.00  -2.87
iter:  31 03:00:10 -5817.470189c -4.36  -2.84
iter:  32 03:01:37 -5817.443090c -4.84  -2.93
iter:  33 03:03:01 -5817.431661c -5.42  -3.10
iter:  34 03:04:16 -5817.429299c -5.37  -3.16
iter:  35 03:05:37 -5817.434124c -5.11  -3.22
iter:  36 03:06:52 -5817.456747c -5.32  -3.48
iter:  37 03:08:07 -5817.434526c -5.18  -3.06
iter:  38 03:09:22 -5817.433632c -5.71  -3.54
iter:  39 03:10:37 -5817.433349c -6.16  -3.62
iter:  40 03:12:11 -5817.437571c -5.89  -3.75
iter:  41 03:13:36 -5817.435744c -6.80  -3.65
iter:  42 03:14:53 -5817.435856c -6.89  -3.89
iter:  43 03:16:13 -5817.434737c -6.94  -4.00c
iter:  44 03:17:31 -5817.434780c -8.05c -4.04c

Converged after 44 iterations.

Dipole moment: (-84.731313, 14.417638, 0.000052) |e|*Ang

Energy contributions relative to reference atoms: (reference = -3367094.026518)

Kinetic:       +551.314783
Potential:     -610.673479
External:        +0.000000
XC:            -5756.560618
Entropy (-ST):   -0.915381
Local:           -1.057776
--------------------------
Free energy:   -5817.892471
Extrapolated:  -5817.434780

Showing only first 2 kpts
 Kpt  Band  Eigenvalues  Occupancy
  0   429      0.06410    1.57102
  0   430      0.30047    0.51250
  0   431      0.35615    0.32975
  0   432      0.38367    0.26075

  1   429     -0.08216    1.88103
  1   430     -0.03889    1.82234
  1   431     -0.02281    1.79453
  1   432      0.02633    1.68469


Fermi level: 0.19391

No gap

Forces in eV/Ang:
  0 Cu   -0.09857   -0.04773   -0.52242
  1 Cu   -0.06477   -0.09955   -0.02515
  2 Cu    0.03615   -0.09733   -0.00360
  3 Cu   -0.05330   -0.15591   -0.56031
  4 Cu    0.00888    0.02164   -0.23889
  5 Cu   -0.00116   -0.00441    0.02018
  6 Cu    0.01152   -0.00354   -0.00958
  7 Cu    0.00533    0.00132   -0.22975
  8 Cu   -0.00131   -0.01058   -0.06114
  9 Cu    0.00349    0.00043    0.00604
 10 Cu    0.00040    0.00252    0.01210
 11 Cu    0.00240    0.01818   -0.04439
 12 Cu    0.00066   -0.00737   -0.01686
 13 Cu    0.00433   -0.00738    0.05127
 14 Cu   -0.00686   -0.00567    0.02996
 15 Cu   -0.00115    0.00358   -0.03492
 16 Cu    0.00361    0.00148    0.00315
 17 Cu    0.01133    0.00401    0.07826
 18 Cu    0.01032   -0.03244    0.17542
 19 Cu   -0.01550   -0.01592   -0.01637
 20 Cu    0.03835   -0.03469   -0.07496
 21 Cu    0.05223    0.18206    0.43000
 22 Cu   -0.04964   -0.23281    0.35874
 23 Cu    0.01368   -0.11697    0.14667
 24 Cu   -0.04701   -0.17881   -0.41519
 25 Cu    0.06526    0.02130   -0.07433
 26 Cu   -0.01504    0.11635   -0.16539
 27 Cu   -0.00413    0.15248   -0.49370
 28 Cu    0.02141   -0.02226   -0.12525
 29 Cu   -0.00457   -0.00052   -0.00974
 30 Cu   -0.00870   -0.00076   -0.03367
 31 Cu   -0.01101    0.02799   -0.17742
 32 Cu   -0.00433    0.00793   -0.05330
 33 Cu   -0.00113    0.00202   -0.00249
 34 Cu    0.00034   -0.00360    0.02652
 35 Cu   -0.00269   -0.01077   -0.04236
 36 Cu    0.00401    0.00217   -0.03161
 37 Cu    0.00200    0.01281    0.06025
 38 Cu    0.00319   -0.00330    0.03628
 39 Cu   -0.00147   -0.00143   -0.02174
 40 Cu    0.00358    0.00567   -0.03167
 41 Cu    0.00737    0.03131    0.37911
 42 Cu   -0.00672   -0.00121    0.22616
 43 Cu    0.00585    0.01803    0.00635
 44 Cu   -0.00504    0.00513    0.11470
 45 Cu    0.09948    0.04895    0.53474
 46 Cu    0.00172    0.04823    0.64395
 47 Cu   -0.04136    0.09749   -0.03048
 48 Cu    0.01435   -0.00632   -0.13256
 49 Cu   -0.00927   -0.05129   -0.62650
 50 Cu   -0.00610   -0.02845   -0.38005
 51 Cu   -0.00336   -0.01779   -0.01441
 52 Cu   -0.00440   -0.00282    0.01969
 53 Cu   -0.00454    0.00349   -0.03981
 54 Cu    0.00044   -0.00134   -0.00702
 55 Cu    0.00280    0.01132    0.04030
 56 Cu   -0.01968    0.02360    0.12397
 57 Cu    0.01282    0.00111    0.02679
 58 Cu   -0.06352   -0.02650    0.05436
 59 Cu   -0.00880   -0.15675    0.50347
 60 Cu   -0.03934    0.04009    0.03917
 61 Cu    0.04737    0.22357   -0.35694
 62 Cu   -0.00953   -0.00110   -0.08225
 63 Cu    0.01593    0.01627    0.00468
 64 Cu   -0.00002    0.00820    0.00472
 65 Cu    0.00777    0.00584   -0.03349
 66 Cu   -0.00284    0.00002   -0.01561
 67 Cu   -0.00200   -0.01842    0.03918
 68 Cu   -0.00536   -0.02178    0.23297
 69 Cu   -0.01298    0.00334    0.00251
 70 Cu    0.05961    0.09568   -0.00132
 71 Cu    0.05836    0.15395    0.57557
 72 Cl    0.10034    0.28958   -0.94995
 73 Cl   -0.40577   -0.23896   -0.98585
 74 Cl   -0.04373    0.09725   -0.45761
 75 Cl   -0.16047    0.10098   -1.04480
 76 Cl    0.34391   -0.28725   -1.14138
 77 Cl   -0.09408   -0.28513    0.94853
 78 Cl    0.40304    0.25415    1.01859
 79 Cl   -0.35097    0.29504    1.16515
 80 Cl    0.16303   -0.11478    1.06881
 81 Cl    0.04987   -0.09384    0.48955

System changes: positions 

Initializing position-dependent things.

Density initialized from wave functions
      .------------------.  
     /|                  |  
    / |                  |  
   /  |                  |  
  /   |                  |  
 *    |                  |  
 |    |                  |  
 |    |                  |  
 |    |                  |  
 |    |                  |  
 |    |     Cl           |  
 |    |             Cl   |  
 |Cl  Cl                 |  
 |    |  Cu    CCl   Cu  |  
 |    |            Cu    |  
 |    |                  |  
 |  CuCu   CuCu  CuCu    |  
 |    |  Cu    Cu  CuCu  |  
 |    |                  |  
 |Cu  CuCu  Cu     Cu    |  
 |  Cu|CuCuCu  CuCuCuCu  |  
 |    |                  |  
 |Cu  CuCu  Cu     Cu    |  
 |  Cu|  CuCu  CuCu  Cu  |  
 |    |                  |  
 |    | Cu               |  
 |  CuCu CCuCu CuCuCuCu  |  
 |    |                  |  
 |Cu  | Cu    Cu         |  
 |  CuCu  CuCu CuCuCu    |  
 |    |  Cu  Cu      Cu  |  
 |    |                  |  
 |Cu  CuCu  CuCu   Cu    |  
 |  Cu| ClCu    CCu      |  
 |    |                  |  
 |Cu  |Cl     Cu         |  
 |    |          Cl  Cl  |  
 |    |                  |  
 |    |                  |  
 |    |                  |  
 |    |                  |  
 |    |                  |  
 |    .------------------.  
 |   /                  /   
 |  /                  /    
 | /                  /     
 |/                  /      
 *------------------*       

Positions:
   0 Cu     2.854876   -0.002804    9.833827    ( 0.0000,  0.0000,  0.0000)
   1 Cu     1.596120    1.899680   11.273620    ( 0.0000,  0.0000,  0.0000)
   2 Cu     4.182036    1.904015   11.322221    ( 0.0000,  0.0000,  0.0000)
   3 Cu     0.268411    0.039392    9.794319    ( 0.0000,  0.0000,  0.0000)
   4 Cu     0.268966    0.011207   12.560751    ( 0.0000,  0.0000,  0.0000)
   5 Cu     4.197847    1.863564   13.935381    ( 0.0000,  0.0000,  0.0000)
   6 Cu     1.583031    1.854684   13.919540    ( 0.0000,  0.0000,  0.0000)
   7 Cu     2.892827    0.008782   12.569790    ( 0.0000,  0.0000,  0.0000)
   8 Cu     2.894336    0.003820   15.213937    ( 0.0000,  0.0000,  0.0000)
   9 Cu     1.583610    1.849117   16.548639    ( 0.0000,  0.0000,  0.0000)
  10 Cu     4.208028    1.854009   16.551890    ( 0.0000,  0.0000,  0.0000)
  11 Cu     0.275432    0.000300   15.212153    ( 0.0000,  0.0000,  0.0000)
  12 Cu     0.281224   -0.000558   17.841994    ( 0.0000,  0.0000,  0.0000)
  13 Cu     4.212553    1.850377   19.172096    ( 0.0000,  0.0000,  0.0000)
  14 Cu     1.589816    1.845380   19.180978    ( 0.0000,  0.0000,  0.0000)
  15 Cu     2.898806    0.001471   17.838420    ( 0.0000,  0.0000,  0.0000)
  16 Cu     2.898787    0.002580   20.448721    ( 0.0000,  0.0000,  0.0000)
  17 Cu     1.591102    1.848497   21.837384    ( 0.0000,  0.0000,  0.0000)
  18 Cu     4.216208    1.830593   21.815653    ( 0.0000,  0.0000,  0.0000)
  19 Cu     0.280671    0.006431   20.470365    ( 0.0000,  0.0000,  0.0000)
  20 Cu     0.265391    0.052058   23.114825    ( 0.0000,  0.0000,  0.0000)
  21 Cu     4.243264    1.831131   24.594734    ( 0.0000,  0.0000,  0.0000)
  22 Cu     1.587928    1.852536   24.629727    ( 0.0000,  0.0000,  0.0000)
  23 Cu     2.904215    0.033890   23.090461    ( 0.0000,  0.0000,  0.0000)
  24 Cu     2.860415    3.720754    9.797493    ( 0.0000,  0.0000,  0.0000)
  25 Cu     1.557314    5.554451   11.253726    ( 0.0000,  0.0000,  0.0000)
  26 Cu     4.197653    5.517426   11.302935    ( 0.0000,  0.0000,  0.0000)
  27 Cu     0.301990    3.680765    9.696726    ( 0.0000,  0.0000,  0.0000)
  28 Cu     0.276576    3.704292   12.539385    ( 0.0000,  0.0000,  0.0000)
  29 Cu     4.203006    5.548256   13.943904    ( 0.0000,  0.0000,  0.0000)
  30 Cu     1.576225    5.557854   13.920223    ( 0.0000,  0.0000,  0.0000)
  31 Cu     2.885830    3.720265   12.576336    ( 0.0000,  0.0000,  0.0000)
  32 Cu     2.889769    3.700108   15.219417    ( 0.0000,  0.0000,  0.0000)
  33 Cu     1.588291    5.553688   16.542466    ( 0.0000,  0.0000,  0.0000)
  34 Cu     4.203965    5.548933   16.553382    ( 0.0000,  0.0000,  0.0000)
  35 Cu     0.278878    3.706684   15.207791    ( 0.0000,  0.0000,  0.0000)
  36 Cu     0.280387    3.696900   17.837448    ( 0.0000,  0.0000,  0.0000)
  37 Cu     4.207979    5.546673   19.178021    ( 0.0000,  0.0000,  0.0000)
  38 Cu     1.590291    5.547992   19.154630    ( 0.0000,  0.0000,  0.0000)
  39 Cu     2.894748    3.696295   17.839553    ( 0.0000,  0.0000,  0.0000)
  40 Cu     2.903982    3.687052   20.456111    ( 0.0000,  0.0000,  0.0000)
  41 Cu     1.595385    5.549792   21.752381    ( 0.0000,  0.0000,  0.0000)
  42 Cu     4.208781    5.542500   21.822807    ( 0.0000,  0.0000,  0.0000)
  43 Cu     0.283538    3.685684   20.456213    ( 0.0000,  0.0000,  0.0000)
  44 Cu     0.286002    3.661002   23.099463    ( 0.0000,  0.0000,  0.0000)
  45 Cu     4.245740    5.553621   24.558839    ( 0.0000,  0.0000,  0.0000)
  46 Cu     1.577420    5.530560   24.524080    ( 0.0000,  0.0000,  0.0000)
  47 Cu     2.920834    3.646860   23.069205    ( 0.0000,  0.0000,  0.0000)
  48 Cu     6.815399    1.890585   11.293354    ( 0.0000,  0.0000,  0.0000)
  49 Cu     5.524380    0.020035    9.867344    ( 0.0000,  0.0000,  0.0000)
  50 Cu     5.506513    0.000924   12.639548    ( 0.0000,  0.0000,  0.0000)
  51 Cu     6.818118    1.865172   13.936642    ( 0.0000,  0.0000,  0.0000)
  52 Cu     6.822371    1.853421   16.555347    ( 0.0000,  0.0000,  0.0000)
  53 Cu     5.512212    0.002542   15.237377    ( 0.0000,  0.0000,  0.0000)
  54 Cu     5.514481   -0.003379   17.849618    ( 0.0000,  0.0000,  0.0000)
  55 Cu     6.823243    1.843822   19.185004    ( 0.0000,  0.0000,  0.0000)
  56 Cu     6.825064    1.846953   21.853475    ( 0.0000,  0.0000,  0.0000)
  57 Cu     5.525530   -0.007205   20.472126    ( 0.0000,  0.0000,  0.0000)
  58 Cu     5.544819   -0.003008   23.138617    ( 0.0000,  0.0000,  0.0000)
  59 Cu     6.800679    1.871088   24.696640    ( 0.0000,  0.0000,  0.0000)
  60 Cu     6.837140    5.499491   11.279122    ( 0.0000,  0.0000,  0.0000)
  61 Cu     5.515540    3.701047    9.763465    ( 0.0000,  0.0000,  0.0000)
  62 Cu     5.510661    3.702512   12.555691    ( 0.0000,  0.0000,  0.0000)
  63 Cu     6.821157    5.544350   13.923093    ( 0.0000,  0.0000,  0.0000)
  64 Cu     6.821490    5.551002   16.551139    ( 0.0000,  0.0000,  0.0000)
  65 Cu     5.512371    3.705161   15.211448    ( 0.0000,  0.0000,  0.0000)
  66 Cu     5.519131    3.701316   17.843753    ( 0.0000,  0.0000,  0.0000)
  67 Cu     6.826859    5.550303   19.181215    ( 0.0000,  0.0000,  0.0000)
  68 Cu     6.832781    5.540044   21.833303    ( 0.0000,  0.0000,  0.0000)
  69 Cu     5.518802    3.696300   20.473321    ( 0.0000,  0.0000,  0.0000)
  70 Cu     5.506351    3.652704   23.119590    ( 0.0000,  0.0000,  0.0000)
  71 Cu     6.833998    5.512339   24.601069    ( 0.0000,  0.0000,  0.0000)
  72 Cl     0.761156    4.277453   25.905910    ( 0.0000,  0.0000,  0.0000)
  73 Cl     5.066742    3.559517   25.938496    ( 0.0000,  0.0000,  0.0000)
  74 Cl     0.152796    1.493025   27.431823    ( 0.0000,  0.0000,  0.0000)
  75 Cl     2.504372   -0.090350   25.860897    ( 0.0000,  0.0000,  0.0000)
  76 Cl     5.821818   -0.213586   25.905219    ( 0.0000,  0.0000,  0.0000)
  77 Cl     6.334660    1.278298    8.490925    ( 0.0000,  0.0000,  0.0000)
  78 Cl     2.034383    1.995934    8.454724    ( 0.0000,  0.0000,  0.0000)
  79 Cl     1.280040    5.776422    8.490076    ( 0.0000,  0.0000,  0.0000)
  80 Cl     4.594971    5.638181    8.528706    ( 0.0000,  0.0000,  0.0000)
  81 Cl     6.957272    4.062318    6.967257    ( 0.0000,  0.0000,  0.0000)

Unit cell:
           periodic     x           y           z      points  spacing
  1. axis:    yes    7.851007    0.000000    0.000000    45     0.1745
  2. axis:    yes    0.000000    7.402000    0.000000    42     0.1762
  3. axis:    yes    0.000000    0.000000   34.393512   196     0.1755

  Lengths:   7.851007   7.402000  34.393512
  Angles:   90.000000  90.000000  90.000000

Effective grid spacing dv^(1/3) = 0.1754

     iter     time        total  log10-change:
                         energy  eigst   dens
iter:   1 03:19:33 -5936.679113  -0.98
iter:   2 03:20:49 -6284.962839  +0.84  -1.12
iter:   3 03:22:05 -6374.089075  +1.14  -0.85
iter:   4 03:23:21 -6084.679114  -0.18  -0.83
iter:   5 03:24:54 -5925.991073  -0.77  -1.04
iter:   6 03:26:11 -5884.235149  -0.99  -1.30
iter:   7 03:27:32 -5924.005795  -2.19  -1.41
iter:   8 03:28:49 -5888.399497  -1.04  -1.27
iter:   9 03:30:05 -5852.564503  -1.32  -1.43
iter:  10 03:31:20 -5834.611519  -1.53  -1.60
iter:  11 03:32:37 -5826.866329  -1.98  -1.77
iter:  12 03:33:53 -5848.805294  -1.89  -1.81
iter:  13 03:35:10 -5824.295376  -2.18  -1.55
iter:  14 03:36:26 -5821.294198  -1.84  -1.87
iter:  15 03:37:45 -5820.606713  -3.12  -1.99
iter:  16 03:39:04 -5820.923877  -2.86  -2.03
iter:  17 03:40:19 -5819.944114  -3.89  -2.03
iter:  18 03:41:35 -5819.380512  -3.29  -2.12
iter:  19 03:42:51 -5818.568838  -2.83  -2.21
iter:  20 03:44:08 -5818.692148  -3.59  -2.47
iter:  21 03:45:30 -5819.714581  -3.12  -2.40
iter:  22 03:46:46 -5818.389601  -3.35  -2.09
iter:  23 03:48:03 -5818.390179  -4.38  -2.62
iter:  24 03:49:19 -5818.400490c -3.96  -2.59
iter:  25 03:50:35 -5818.444347c -3.93  -2.62
iter:  26 03:51:55 -5818.360937c -4.07  -2.60
iter:  27 03:53:11 -5818.339650c -4.56  -2.76
iter:  28 03:54:28 -5818.339186c -4.40  -2.85
iter:  29 03:55:45 -5818.302980c -4.34  -2.94
iter:  30 03:57:07 -5818.304209c -5.79  -3.16
iter:  31 03:58:21 -5818.302403c -4.53  -3.27
iter:  32 03:59:37 -5818.304116c -5.01  -3.39
iter:  33 04:00:53 -5818.308978c -5.85  -3.55
iter:  34 04:02:08 -5818.308900c -6.34  -3.43
iter:  35 04:03:23 -5818.315682c -5.46  -3.45
iter:  36 04:04:38 -5818.311613c -6.70  -3.27
iter:  37 04:05:55 -5818.309192c -5.74  -3.36
iter:  38 04:07:17 -5818.306714c -6.19  -3.51
iter:  39 04:08:47 -5818.306547c -5.35  -3.78
iter:  40 04:10:10 -5818.305727c -6.56  -3.80
iter:  41 04:11:27 -5818.305168c -6.64  -3.98
iter:  42 04:13:06 -5818.304949c -7.42c -4.20c

Converged after 42 iterations.

Dipole moment: (-84.434440, 14.075611, -0.005740) |e|*Ang

Energy contributions relative to reference atoms: (reference = -3367094.026518)

Kinetic:       +591.586912
Potential:     -643.608088
External:        +0.000000
XC:            -5764.848342
Entropy (-ST):   -0.779506
Local:           -1.045678
--------------------------
Free energy:   -5818.694701
Extrapolated:  -5818.304949

Showing only first 2 kpts
 Kpt  Band  Eigenvalues  Occupancy
  0   429      0.26437    1.63244
  0   430      0.55202    0.40023
  0   431      0.60475    0.25733
  0   432      0.62882    0.20801

  1   429      0.07717    1.93306
  1   430      0.12287    1.89628
  1   431      0.19664    1.79473
  1   432      0.25737    1.65299


Fermi level: 0.41347

No gap

Forces in eV/Ang:
  0 Cu    0.10996   -0.01425    0.17460
  1 Cu   -0.11896   -0.16578   -0.00992
  2 Cu    0.08978   -0.17411   -0.17698
  3 Cu   -0.16027    0.04407    0.29585
  4 Cu   -0.01428    0.02191   -0.19984
  5 Cu    0.00869   -0.01984   -0.05989
  6 Cu    0.00039   -0.00159   -0.10826
  7 Cu    0.00668   -0.02898   -0.21004
  8 Cu   -0.00359   -0.00749   -0.01097
  9 Cu    0.00096   -0.00483   -0.03843
 10 Cu   -0.00601   -0.00033   -0.02425
 11 Cu   -0.00022    0.02036   -0.00673
 12 Cu   -0.00241   -0.00651    0.03201
 13 Cu    0.00311   -0.00669    0.00860
 14 Cu   -0.00195   -0.00260   -0.01950
 15 Cu    0.00890    0.00439    0.01689
 16 Cu    0.01895   -0.01177    0.12289
 17 Cu    0.00857   -0.00348    0.02887
 18 Cu    0.02044   -0.07148    0.10022
 19 Cu    0.00474   -0.02939    0.07774
 20 Cu    0.08909   -0.12713    0.04943
 21 Cu   -0.30379   -0.08123   -0.34144
 22 Cu   -0.24789   -0.11515   -0.00441
 23 Cu    0.00382   -0.18415    0.21360
 24 Cu    0.30507    0.08538    0.34919
 25 Cu    0.09801    0.00200   -0.00569
 26 Cu   -0.00081    0.18485   -0.21661
 27 Cu   -0.45513    0.14628   -0.17866
 28 Cu    0.03306   -0.02974   -0.05504
 29 Cu   -0.01825    0.01245   -0.13097
 30 Cu    0.02522    0.00314   -0.15744
 31 Cu   -0.02009    0.07180   -0.10075
 32 Cu   -0.00389    0.00685   -0.01073
 33 Cu    0.00650   -0.00348   -0.03641
 34 Cu   -0.00936   -0.00373   -0.01686
 35 Cu    0.00114   -0.01756   -0.00182
 36 Cu   -0.00513    0.00720    0.02773
 37 Cu    0.00340    0.00872    0.00860
 38 Cu   -0.00211   -0.00320    0.00648
 39 Cu    0.00550    0.00099    0.02404
 40 Cu   -0.00669    0.02005    0.05386
 41 Cu   -0.00549    0.04043    0.42238
 42 Cu   -0.00450    0.02917    0.20567
 43 Cu    0.00350    0.03000    0.10175
 44 Cu   -0.00826    0.01576    0.20943
 45 Cu   -0.10118    0.01702   -0.16588
 46 Cu    1.16136    1.54193   -2.02363
 47 Cu   -0.09325    0.17202    0.17935
 48 Cu    0.01275   -0.01856   -0.20662
 49 Cu   -1.17842   -1.58647    2.05011
 50 Cu    0.00748   -0.03987   -0.42294
 51 Cu   -0.00129   -0.03067   -0.10985
 52 Cu    0.00508   -0.00637   -0.03005
 53 Cu    0.00137    0.00401   -0.00966
 54 Cu   -0.00719    0.00407    0.03571
 55 Cu   -0.00010    0.01776   -0.00167
 56 Cu   -0.03113    0.02965    0.05489
 57 Cu   -0.02357   -0.00257    0.15118
 58 Cu   -0.09724   -0.00578    0.01164
 59 Cu    0.45614   -0.14681    0.18067
 60 Cu   -0.09393    0.12734   -0.05361
 61 Cu    0.24593    0.11442    0.01223
 62 Cu   -0.00803    0.00427   -0.03254
 63 Cu   -0.00377    0.03041   -0.08601
 64 Cu    0.00313    0.00661   -0.03423
 65 Cu    0.00265    0.00258    0.01640
 66 Cu   -0.00079    0.00505    0.03727
 67 Cu    0.00123   -0.02030    0.00136
 68 Cu    0.01357   -0.01983    0.19481
 69 Cu   -0.00135    0.00123    0.10151
 70 Cu    0.11746    0.16223    0.00892
 71 Cu    0.14378   -0.02976   -0.28120
 72 Cl   -1.02845   -1.43030    1.59992
 73 Cl   -0.24048    0.01666    0.03717
 74 Cl   -0.05724    0.24784   -0.75999
 75 Cl    0.19645    0.20313   -0.21771
 76 Cl    0.00341   -0.22473   -0.25589
 77 Cl    1.04069    1.45952   -1.62701
 78 Cl    0.23153   -0.01639   -0.03894
 79 Cl   -0.00584    0.21437    0.23664
 80 Cl   -0.18427   -0.19247    0.23111
 81 Cl    0.06232   -0.24665    0.75659

System changes: positions 

Initializing position-dependent things.

Density initialized from wave functions
      .------------------.  
     /|                  |  
    / |                  |  
   /  |                  |  
  /   |                  |  
 *    |                  |  
 |    |                  |  
 |    |                  |  
 |    |                  |  
 |    |                  |  
 |    |     Cl           |  
 |    |             Cl   |  
 |   Cl                  |  
 |Cl  |  Cu    CCl   Cu  |  
 |    |            Cu    |  
 |    |                  |  
 |  CuCu   CCu   CuCu    |  
 |    |  Cu    Cu  CuCu  |  
 |    |                  |  
 |Cu  CuCu  Cu   CuCu    |  
 |  Cu|CuCuCu  Cu  CuCu  |  
 |    |                  |  
 |Cu  CuCu  Cu     Cu    |  
 |  Cu|  CuCu  CuCu  Cu  |  
 |    |                  |  
 |    | Cu               |  
 |  CuCu CCuCu CuCuCuCu  |  
 |    |            Cu    |  
 |Cu  | Cu    Cu         |  
 |  CuCu  CuCu CuCuCu    |  
 |    |  Cu  Cu    CuCu  |  
 |    |                  |  
 |Cu  CuCuCuCu     Cu    |  
 |  Cu| Cl      CCu      |  
 |    |                  |  
 |Cu  |Cl                |  
 |    |          Cl  Cl  |  
 |    |                  |  
 |    |                  |  
 |    |                  |  
 |    |                  |  
 |    |                  |  
 |    .------------------.  
 |   /                  /   
 |  /                  /    
 | /                  /     
 |/                  /      
 *------------------*       

Positions:
   0 Cu     2.861456   -0.004238    9.841046    ( 0.0000,  0.0000,  0.0000)
   1 Cu     1.587590    1.887777   11.273075    ( 0.0000,  0.0000,  0.0000)
   2 Cu     4.188371    1.891650   11.310684    ( 0.0000,  0.0000,  0.0000)
   3 Cu     0.256798    0.041485    9.809770    ( 0.0000,  0.0000,  0.0000)
   4 Cu     0.268074    0.012876   12.545393    ( 0.0000,  0.0000,  0.0000)
   5 Cu     4.198418    1.862196   13.931558    ( 0.0000,  0.0000,  0.0000)
   6 Cu     1.583174    1.854550   13.912184    ( 0.0000,  0.0000,  0.0000)
   7 Cu     2.893323    0.006839   12.553765    ( 0.0000,  0.0000,  0.0000)
   8 Cu     2.894080    0.003213   15.212727    ( 0.0000,  0.0000,  0.0000)
   9 Cu     1.583699    1.848796   16.546182    ( 0.0000,  0.0000,  0.0000)
  10 Cu     4.207637    1.854009   16.550441    ( 0.0000,  0.0000,  0.0000)
  11 Cu     0.275440    0.001833   15.211395    ( 0.0000,  0.0000,  0.0000)
  12 Cu     0.281069   -0.001068   17.844032    ( 0.0000,  0.0000,  0.0000)
  13 Cu     4.212799    1.849859   19.173086    ( 0.0000,  0.0000,  0.0000)
  14 Cu     1.589614    1.845157   19.179899    ( 0.0000,  0.0000,  0.0000)
  15 Cu     2.899392    0.001801   17.839276    ( 0.0000,  0.0000,  0.0000)
  16 Cu     2.900079    0.001794   20.457044    ( 0.0000,  0.0000,  0.0000)
  17 Cu     1.591782    1.848280   21.840078    ( 0.0000,  0.0000,  0.0000)
  18 Cu     4.217695    1.825503   21.823939    ( 0.0000,  0.0000,  0.0000)
  19 Cu     0.280866    0.004307   20.475500    ( 0.0000,  0.0000,  0.0000)
  20 Cu     0.271604    0.043420   23.117459    ( 0.0000,  0.0000,  0.0000)
  21 Cu     4.222706    1.826542   24.574828    ( 0.0000,  0.0000,  0.0000)
  22 Cu     1.570594    1.842974   24.632525    ( 0.0000,  0.0000,  0.0000)
  23 Cu     2.904733    0.020777   23.105801    ( 0.0000,  0.0000,  0.0000)
  24 Cu     2.881053    3.725628    9.817951    ( 0.0000,  0.0000,  0.0000)
  25 Cu     1.564490    5.554757   11.253026    ( 0.0000,  0.0000,  0.0000)
  26 Cu     4.197352    5.530588   11.287371    ( 0.0000,  0.0000,  0.0000)
  27 Cu     0.271027    3.691802    9.680239    ( 0.0000,  0.0000,  0.0000)
  28 Cu     0.279005    3.702066   12.534552    ( 0.0000,  0.0000,  0.0000)
  29 Cu     4.201765    5.549094   13.935031    ( 0.0000,  0.0000,  0.0000)
  30 Cu     1.577819    5.558052   13.909363    ( 0.0000,  0.0000,  0.0000)
  31 Cu     2.884373    3.725372   12.568023    ( 0.0000,  0.0000,  0.0000)
  32 Cu     2.889474    3.700643   15.218296    ( 0.0000,  0.0000,  0.0000)
  33 Cu     1.588721    5.553469   16.540055    ( 0.0000,  0.0000,  0.0000)
  34 Cu     4.203346    5.548652   16.552552    ( 0.0000,  0.0000,  0.0000)
  35 Cu     0.278923    3.705406   15.207347    ( 0.0000,  0.0000,  0.0000)
  36 Cu     0.280081    3.697411   17.839059    ( 0.0000,  0.0000,  0.0000)
  37 Cu     4.208225    5.547372   19.179079    ( 0.0000,  0.0000,  0.0000)
  38 Cu     1.590181    5.547748   19.155322    ( 0.0000,  0.0000,  0.0000)
  39 Cu     2.895102    3.696345   17.841011    ( 0.0000,  0.0000,  0.0000)
  40 Cu     2.903557    3.688442   20.459515    ( 0.0000,  0.0000,  0.0000)
  41 Cu     1.595052    5.552774   21.783372    ( 0.0000,  0.0000,  0.0000)
  42 Cu     4.208451    5.544465   21.838519    ( 0.0000,  0.0000,  0.0000)
  43 Cu     0.283825    3.687865   20.463142    ( 0.0000,  0.0000,  0.0000)
  44 Cu     0.285406    3.661934   23.114351    ( 0.0000,  0.0000,  0.0000)
  45 Cu     4.239746    5.555230   24.552210    ( 0.0000,  0.0000,  0.0000)
  46 Cu     1.658893    5.639604   24.387895    ( 0.0000,  0.0000,  0.0000)
  47 Cu     2.914249    3.659080   23.080916    ( 0.0000,  0.0000,  0.0000)
  48 Cu     6.816322    1.889452   11.278649    ( 0.0000,  0.0000,  0.0000)
  49 Cu     5.441699   -0.092116   10.005418    ( 0.0000,  0.0000,  0.0000)
  50 Cu     5.506990   -0.002015   12.608537    ( 0.0000,  0.0000,  0.0000)
  51 Cu     6.817991    1.862948   13.929143    ( 0.0000,  0.0000,  0.0000)
  52 Cu     6.822671    1.852967   16.553580    ( 0.0000,  0.0000,  0.0000)
  53 Cu     5.512268    0.002847   15.236475    ( 0.0000,  0.0000,  0.0000)
  54 Cu     5.514003   -0.003116   17.851994    ( 0.0000,  0.0000,  0.0000)
  55 Cu     6.823272    1.845118   19.185211    ( 0.0000,  0.0000,  0.0000)
  56 Cu     6.822776    1.849166   21.858298    ( 0.0000,  0.0000,  0.0000)
  57 Cu     5.524063   -0.007361   20.482548    ( 0.0000,  0.0000,  0.0000)
  58 Cu     5.537692   -0.003587   23.139728    ( 0.0000,  0.0000,  0.0000)
  59 Cu     6.831682    1.859992   24.713254    ( 0.0000,  0.0000,  0.0000)
  60 Cu     6.830582    5.508149   11.276191    ( 0.0000,  0.0000,  0.0000)
  61 Cu     5.532736    3.710527    9.761187    ( 0.0000,  0.0000,  0.0000)
  62 Cu     5.510028    3.702785   12.552734    ( 0.0000,  0.0000,  0.0000)
  63 Cu     6.821040    5.546547   13.917371    ( 0.0000,  0.0000,  0.0000)
  64 Cu     6.821692    5.551520   16.548941    ( 0.0000,  0.0000,  0.0000)
  65 Cu     5.512621    3.705387   15.212309    ( 0.0000,  0.0000,  0.0000)
  66 Cu     5.519055    3.701656   17.846141    ( 0.0000,  0.0000,  0.0000)
  67 Cu     6.826921    5.548777   19.181594    ( 0.0000,  0.0000,  0.0000)
  68 Cu     6.833628    5.538525   21.848302    ( 0.0000,  0.0000,  0.0000)
  69 Cu     5.518603    3.696411   20.480212    ( 0.0000,  0.0000,  0.0000)
  70 Cu     5.514761    3.664348   23.120052    ( 0.0000,  0.0000,  0.0000)
  71 Cu     6.844476    5.511205   24.586633    ( 0.0000,  0.0000,  0.0000)
  72 Cl     0.689319    4.177427   26.012027    ( 0.0000,  0.0000,  0.0000)
  73 Cl     5.047370    3.559271   25.933364    ( 0.0000,  0.0000,  0.0000)
  74 Cl     0.148388    1.510597   27.375605    ( 0.0000,  0.0000,  0.0000)
  75 Cl     2.516914   -0.075248   25.838247    ( 0.0000,  0.0000,  0.0000)
  76 Cl     5.824529   -0.230335   25.879705    ( 0.0000,  0.0000,  0.0000)
  77 Cl     6.407374    1.380369    8.382854    ( 0.0000,  0.0000,  0.0000)
  78 Cl     2.053090    1.996249    8.459695    ( 0.0000,  0.0000,  0.0000)
  79 Cl     1.277163    5.792454    8.514205    ( 0.0000,  0.0000,  0.0000)
  80 Cl     4.583310    5.623816    8.552289    ( 0.0000,  0.0000,  0.0000)
  81 Cl     6.962060    4.044838    7.023238    ( 0.0000,  0.0000,  0.0000)

Unit cell:
           periodic     x           y           z      points  spacing
  1. axis:    yes    7.851007    0.000000    0.000000    45     0.1745
  2. axis:    yes    0.000000    7.402000    0.000000    42     0.1762
  3. axis:    yes    0.000000    0.000000   34.393512   196     0.1755

  Lengths:   7.851007   7.402000  34.393512
  Angles:   90.000000  90.000000  90.000000

Effective grid spacing dv^(1/3) = 0.1754

     iter     time        total  log10-change:
                         energy  eigst   dens
iter:   1 04:15:15 -5822.127846  -1.34
iter:   2 04:16:31 -5822.019779  -2.42  -2.12
iter:   3 04:17:54 -5821.794529c -2.73  -2.13
iter:   4 04:19:16 -5819.512648  -2.63  -2.09
iter:   5 04:20:41 -5820.328046  -2.74  -2.38
iter:   6 04:22:11 -5819.239145  -3.16  -2.27
iter:   7 04:23:32 -5819.222097  -4.43  -2.62
iter:   8 04:24:50 -5819.060673c -3.21  -2.63
iter:   9 04:26:05 -5819.034620c -4.19  -2.88
iter:  10 04:27:39 -5819.033488c -4.55  -2.92
iter:  11 04:29:05 -5819.014654c -4.09  -3.01
iter:  12 04:30:31 -5819.005812c -5.30  -2.92
iter:  13 04:31:59 -5819.065186c -4.27  -3.02
iter:  14 04:33:21 -5819.022454c -4.32  -2.83
iter:  15 04:34:36 -5819.016885c -5.39  -3.20
iter:  16 04:35:51 -5819.005509c -5.48  -3.29
iter:  17 04:37:15 -5819.005099c -5.37  -3.57
iter:  18 04:38:35 -5819.005982c -5.19  -3.45
iter:  19 04:39:51 -5819.002885c -5.92  -3.46
iter:  20 04:41:12 -5819.002370c -6.82  -3.87
iter:  21 04:42:42 -5819.002355c -6.16  -3.90
iter:  22 04:44:16 -5819.001402c -7.03  -4.16c
iter:  23 04:45:44 -5819.002218c -6.27  -4.23c
iter:  24 04:47:31 -5819.001837c -7.28  -4.42c
iter:  25 04:48:57 -5819.001892c -6.99  -4.53c
iter:  26 04:50:25 -5819.001846c -8.00c -4.68c

Converged after 26 iterations.

Dipole moment: (-84.813194, 18.325715, -0.004314) |e|*Ang

Energy contributions relative to reference atoms: (reference = -3367094.026518)

Kinetic:       +576.614548
Potential:     -630.884001
External:        +0.000000
XC:            -5763.213067
Entropy (-ST):   -0.774874
Local:           -1.131889
--------------------------
Free energy:   -5819.389283
Extrapolated:  -5819.001846

Showing only first 2 kpts
 Kpt  Band  Eigenvalues  Occupancy
  0   429      0.27208    1.59457
  0   430      0.54867    0.39673
  0   431      0.60062    0.25661
  0   432      0.63031    0.19720

  1   429      0.05290    1.94476
  1   430      0.10818    1.90590
  1   431      0.19893    1.78198
  1   432      0.25615    1.64363


Fermi level: 0.40902

No gap

Forces in eV/Ang:
  0 Cu   -0.03151    0.05707    0.09719
  1 Cu   -0.07032   -0.07902   -0.05868
  2 Cu    0.06126   -0.09052   -0.14008
  3 Cu   -0.40805    0.16250    0.14461
  4 Cu   -0.01476    0.01086   -0.13225
  5 Cu    0.00523   -0.02213   -0.06361
  6 Cu    0.01025   -0.00892   -0.08575
  7 Cu    0.00241   -0.01219   -0.12017
  8 Cu   -0.00117   -0.00804   -0.03038
  9 Cu    0.00166   -0.00363   -0.03217
 10 Cu   -0.00298    0.00108   -0.01791
 11 Cu    0.00070    0.00831   -0.03001
 12 Cu   -0.00261   -0.00447    0.02581
 13 Cu    0.00073   -0.00624    0.03215
 14 Cu   -0.00062   -0.00072    0.00420
 15 Cu    0.00491    0.00144    0.02319
 16 Cu    0.00109   -0.02190    0.11029
 17 Cu    0.01765    0.00011    0.05318
 18 Cu   -0.01463   -0.01712    0.09895
 19 Cu    0.00289   -0.03049    0.06665
 20 Cu   -0.03342   -0.00609   -0.01102
 21 Cu   -0.15858    0.01651   -0.28053
 22 Cu   -0.21871    0.02819    0.02924
 23 Cu    0.13187    0.08632   -0.01487
 24 Cu    0.15554   -0.01658    0.27862
 25 Cu    0.02613   -0.02863   -0.02945
 26 Cu   -0.13498   -0.09151    0.01778
 27 Cu   -0.29909    0.07844   -0.22254
 28 Cu    0.00368   -0.00831   -0.06795
 29 Cu    0.00040    0.02211   -0.10765
 30 Cu    0.00405    0.01640   -0.11138
 31 Cu    0.01568    0.01806   -0.09783
 32 Cu   -0.00006    0.00654   -0.02829
 33 Cu    0.00198   -0.00046   -0.03611
 34 Cu   -0.00488   -0.00118   -0.02064
 35 Cu    0.00015   -0.00924   -0.01904
 36 Cu   -0.00168    0.00503    0.02385
 37 Cu    0.00140    0.00852    0.03302
 38 Cu    0.00089    0.00098    0.06481
 39 Cu    0.00317   -0.00020    0.02060
 40 Cu   -0.00434    0.02259    0.06901
 41 Cu   -0.02535   -0.00860    0.15809
 42 Cu   -0.00099    0.01198    0.12072
 43 Cu    0.00883    0.03040    0.09556
 44 Cu    0.04499    0.05260    0.28977
 45 Cu    0.03117   -0.05553   -0.10018
 46 Cu   -0.27082   -0.43289    0.17730
 47 Cu   -0.06370    0.08999    0.14238
 48 Cu   -0.04394   -0.05399   -0.29023
 49 Cu    0.27553    0.44566   -0.19119
 50 Cu    0.02559    0.00935   -0.15523
 51 Cu   -0.00816   -0.02966   -0.09184
 52 Cu    0.00134   -0.00441   -0.02229
 53 Cu   -0.00092   -0.00057   -0.06191
 54 Cu   -0.00219    0.00095    0.03811
 55 Cu    0.00017    0.00962    0.02112
 56 Cu   -0.00246    0.00862    0.06771
 57 Cu   -0.00357   -0.01520    0.11477
 58 Cu   -0.02663    0.02610    0.03051
 59 Cu    0.30046   -0.07832    0.21328
 60 Cu    0.03459    0.00230    0.01104
 61 Cu    0.21802   -0.03169   -0.03245
 62 Cu   -0.01735   -0.00039   -0.05402
 63 Cu   -0.00199    0.03029   -0.06382
 64 Cu    0.00241    0.00472   -0.02488
 65 Cu    0.00078    0.00110   -0.00146
 66 Cu   -0.00191    0.00401    0.03390
 67 Cu   -0.00047   -0.00823    0.03093
 68 Cu    0.01656   -0.01052    0.13079
 69 Cu   -0.00881    0.00854    0.08860
 70 Cu    0.07024    0.07780    0.05690
 71 Cu    0.40145   -0.15601   -0.14294
 72 Cl    0.11972    0.55190   -0.76498
 73 Cl   -0.30201   -0.04328   -0.07542
 74 Cl   -0.11187    0.07580   -0.69631
 75 Cl    0.12765    0.05212   -0.08359
 76 Cl   -0.02384   -0.22113   -0.22021
 77 Cl   -0.12691   -0.55659    0.76923
 78 Cl    0.29977    0.04656    0.07204
 79 Cl    0.03090    0.21388    0.20851
 80 Cl   -0.12539   -0.05347    0.07934
 81 Cl    0.11706   -0.07565    0.69356

System changes: positions 

Initializing position-dependent things.

Density initialized from wave functions
      .------------------.  
     /|                  |  
    / |                  |  
   /  |                  |  
  /   |                  |  
 *    |                  |  
 |    |                  |  
 |    |                  |  
 |    |                  |  
 |    |                  |  
 |    |                  |  
 |    |     Cl      Cl   |  
 |   Cl                  |  
 |Cl  |  Cu    CCl   Cu  |  
 |    |            Cu    |  
 |    |                  |  
 |  CuCu   CCu   CuCu    |  
 |    |  Cu  CuCu  CuCu  |  
 |    |                  |  
 |Cu  CuCu  Cu   CuCu    |  
 |  Cu|CuCuCu  Cu  CuCu  |  
 |    |                  |  
 |Cu  Cu    Cu     Cu    |  
 |  Cu|  CuCu  CuCu  Cu  |  
 |    |                  |  
 |    | Cu               |  
 |  CuCu CCuCu CuCuCuCu  |  
 |    |            Cu    |  
 |Cu  | Cu    Cu         |  
 |  CuCu   CCu CuCuCu    |  
 |    |  Cu  Cu    CuCu  |  
 |    |                  |  
 |Cu  CuCu CCu     Cu    |  
 |  Cu| Cl      CCu      |  
 |    |                  |  
 |Cu  |Cl                |  
 |    |          Cl  Cl  |  
 |    |                  |  
 |    |                  |  
 |    |                  |  
 |    |                  |  
 |    |                  |  
 |    .------------------.  
 |   /                  /   
 |  /                  /    
 | /                  /     
 |/                  /      
 *------------------*       

Positions:
   0 Cu     2.857819   -0.000592    9.839721    ( 0.0000,  0.0000,  0.0000)
   1 Cu     1.578335    1.876535   11.268017    ( 0.0000,  0.0000,  0.0000)
   2 Cu     4.195813    1.879541   11.296861    ( 0.0000,  0.0000,  0.0000)
   3 Cu     0.215909    0.054254    9.814453    ( 0.0000,  0.0000,  0.0000)
   4 Cu     0.266756    0.014659   12.525793    ( 0.0000,  0.0000,  0.0000)
   5 Cu     4.198963    1.859866   13.925648    ( 0.0000,  0.0000,  0.0000)
   6 Cu     1.584413    1.853656   13.902912    ( 0.0000,  0.0000,  0.0000)
   7 Cu     2.893749    0.005392   12.535168    ( 0.0000,  0.0000,  0.0000)
   8 Cu     2.893889    0.002116   15.208583    ( 0.0000,  0.0000,  0.0000)
   9 Cu     1.583926    1.848420   16.543154    ( 0.0000,  0.0000,  0.0000)
  10 Cu     4.207327    1.854160   16.549019    ( 0.0000,  0.0000,  0.0000)
  11 Cu     0.275561    0.003281   15.207790    ( 0.0000,  0.0000,  0.0000)
  12 Cu     0.280822   -0.001746   17.846441    ( 0.0000,  0.0000,  0.0000)
  13 Cu     4.213003    1.849029   19.177196    ( 0.0000,  0.0000,  0.0000)
  14 Cu     1.589344    1.844927   19.180656    ( 0.0000,  0.0000,  0.0000)
  15 Cu     2.899909    0.002078   17.840811    ( 0.0000,  0.0000,  0.0000)
  16 Cu     2.900464   -0.000305   20.468656    ( 0.0000,  0.0000,  0.0000)
  17 Cu     1.593755    1.848295   21.847256    ( 0.0000,  0.0000,  0.0000)
  18 Cu     4.216949    1.822294   21.838276    ( 0.0000,  0.0000,  0.0000)
  19 Cu     0.280847    0.000799   20.482214    ( 0.0000,  0.0000,  0.0000)
  20 Cu     0.270343    0.041014   23.115229    ( 0.0000,  0.0000,  0.0000)
  21 Cu     4.204275    1.829356   24.553610    ( 0.0000,  0.0000,  0.0000)
  22 Cu     1.546030    1.839109   24.643477    ( 0.0000,  0.0000,  0.0000)
  23 Cu     2.917314    0.024196   23.109830    ( 0.0000,  0.0000,  0.0000)
  24 Cu     2.899211    3.722874    9.839175    ( 0.0000,  0.0000,  0.0000)
  25 Cu     1.569666    5.552681   11.249456    ( 0.0000,  0.0000,  0.0000)
  26 Cu     4.184572    5.526716   11.283506    ( 0.0000,  0.0000,  0.0000)
  27 Cu     0.237456    3.703950    9.645889    ( 0.0000,  0.0000,  0.0000)
  28 Cu     0.280311    3.700331   12.524692    ( 0.0000,  0.0000,  0.0000)
  29 Cu     4.201532    5.551238   13.923537    ( 0.0000,  0.0000,  0.0000)
  30 Cu     1.578226    5.559525   13.896636    ( 0.0000,  0.0000,  0.0000)
  31 Cu     2.885236    3.728658   12.553800    ( 0.0000,  0.0000,  0.0000)
  32 Cu     2.889327    3.701519   15.214541    ( 0.0000,  0.0000,  0.0000)
  33 Cu     1.588960    5.553424   16.536455    ( 0.0000,  0.0000,  0.0000)
  34 Cu     4.202817    5.548416   16.551312    ( 0.0000,  0.0000,  0.0000)
  35 Cu     0.278864    3.704089   15.204746    ( 0.0000,  0.0000,  0.0000)
  36 Cu     0.279970    3.698026   17.840863    ( 0.0000,  0.0000,  0.0000)
  37 Cu     4.208439    5.548553   19.183451    ( 0.0000,  0.0000,  0.0000)
  38 Cu     1.590319    5.547716   19.161911    ( 0.0000,  0.0000,  0.0000)
  39 Cu     2.895413    3.696295   17.842734    ( 0.0000,  0.0000,  0.0000)
  40 Cu     2.903151    3.690838   20.465797    ( 0.0000,  0.0000,  0.0000)
  41 Cu     1.592810    5.553231   21.809930    ( 0.0000,  0.0000,  0.0000)
  42 Cu     4.208229    5.545919   21.857058    ( 0.0000,  0.0000,  0.0000)
  43 Cu     0.284802    3.691414   20.473241    ( 0.0000,  0.0000,  0.0000)
  44 Cu     0.289227    3.666504   23.145176    ( 0.0000,  0.0000,  0.0000)
  45 Cu     4.243450    5.551726   24.553387    ( 0.0000,  0.0000,  0.0000)
  46 Cu     1.658527    5.634911   24.377781    ( 0.0000,  0.0000,  0.0000)
  47 Cu     2.906498    3.671105   23.095013    ( 0.0000,  0.0000,  0.0000)
  48 Cu     6.812722    1.884687   11.247803    ( 0.0000,  0.0000,  0.0000)
  49 Cu     5.442105   -0.087150   10.014915    ( 0.0000,  0.0000,  0.0000)
  50 Cu     5.509309   -0.002382   12.582273    ( 0.0000,  0.0000,  0.0000)
  51 Cu     6.817134    1.859461   13.919209    ( 0.0000,  0.0000,  0.0000)
  52 Cu     6.822741    1.852422   16.551888    ( 0.0000,  0.0000,  0.0000)
  53 Cu     5.512103    0.002942   15.230118    ( 0.0000,  0.0000,  0.0000)
  54 Cu     5.513730   -0.003009   17.855797    ( 0.0000,  0.0000,  0.0000)
  55 Cu     6.823383    1.846481   19.187949    ( 0.0000,  0.0000,  0.0000)
  56 Cu     6.821632    1.850908   21.868136    ( 0.0000,  0.0000,  0.0000)
  57 Cu     5.523763   -0.008713   20.495455    ( 0.0000,  0.0000,  0.0000)
  58 Cu     5.532474   -0.001836   23.143504    ( 0.0000,  0.0000,  0.0000)
  59 Cu     6.865314    1.847788   24.746777    ( 0.0000,  0.0000,  0.0000)
  60 Cu     6.831834    5.510228   11.278327    ( 0.0000,  0.0000,  0.0000)
  61 Cu     5.557196    3.713979    9.750030    ( 0.0000,  0.0000,  0.0000)
  62 Cu     5.508118    3.702765   12.545394    ( 0.0000,  0.0000,  0.0000)
  63 Cu     6.821182    5.550060   13.910722    ( 0.0000,  0.0000,  0.0000)
  64 Cu     6.821925    5.552227   16.546559    ( 0.0000,  0.0000,  0.0000)
  65 Cu     5.512919    3.705663   15.211730    ( 0.0000,  0.0000,  0.0000)
  66 Cu     5.518810    3.702079   17.849335    ( 0.0000,  0.0000,  0.0000)
  67 Cu     6.826838    5.547347   19.185166    ( 0.0000,  0.0000,  0.0000)
  68 Cu     6.835109    5.536827   21.867652    ( 0.0000,  0.0000,  0.0000)
  69 Cu     5.517502    3.697269   20.489624    ( 0.0000,  0.0000,  0.0000)
  70 Cu     5.523939    3.675378   23.124894    ( 0.0000,  0.0000,  0.0000)
  71 Cu     6.884495    5.499188   24.582368    ( 0.0000,  0.0000,  0.0000)
  72 Cl     0.679717    4.198309   25.959789    ( 0.0000,  0.0000,  0.0000)
  73 Cl     5.008560    3.551897   25.906387    ( 0.0000,  0.0000,  0.0000)
  74 Cl     0.136115    1.523001   27.289655    ( 0.0000,  0.0000,  0.0000)
  75 Cl     2.529044   -0.064084   25.806273    ( 0.0000,  0.0000,  0.0000)
  76 Cl     5.829164   -0.257454   25.834191    ( 0.0000,  0.0000,  0.0000)
  77 Cl     6.416633    1.359658    8.434768    ( 0.0000,  0.0000,  0.0000)
  78 Cl     2.091417    2.004057    8.486233    ( 0.0000,  0.0000,  0.0000)
  79 Cl     1.273127    5.818737    8.558180    ( 0.0000,  0.0000,  0.0000)
  80 Cl     4.571703    5.612722    8.584143    ( 0.0000,  0.0000,  0.0000)
  81 Cl     6.974967    4.032496    7.108875    ( 0.0000,  0.0000,  0.0000)

Unit cell:
           periodic     x           y           z      points  spacing
  1. axis:    yes    7.851007    0.000000    0.000000    45     0.1745
  2. axis:    yes    0.000000    7.402000    0.000000    42     0.1762
  3. axis:    yes    0.000000    0.000000   34.393512   196     0.1755

  Lengths:   7.851007   7.402000  34.393512
  Angles:   90.000000  90.000000  90.000000

Effective grid spacing dv^(1/3) = 0.1754

     iter     time        total  log10-change:
                         energy  eigst   dens
iter:   1 04:52:27 -5852.614256  -1.62
iter:   2 04:53:44 -5877.682936  -0.73  -1.44
iter:   3 04:55:00 -5840.656806  -0.88  -1.42
iter:   4 04:56:16 -5839.819589  -1.78  -1.69
iter:   5 04:57:33 -5823.004996  -2.33  -1.68
iter:   6 04:58:48 -5821.358856  -2.95  -2.17
iter:   7 05:00:03 -5821.021527  -2.10  -2.28
iter:   8 05:01:20 -5820.006726  -3.19  -2.22
iter:   9 05:02:37 -5820.086034  -2.96  -2.53
iter:  10 05:03:53 -5819.734748c -3.82  -2.50
iter:  11 05:05:09 -5819.626989  -3.84  -2.67
iter:  12 05:06:26 -5819.496082c -3.96  -2.76
iter:  13 05:07:47 -5819.584039c -4.09  -2.87
iter:  14 05:09:06 -5819.473407c -4.33  -2.65
iter:  15 05:10:40 -5819.449299c -4.59  -3.04
iter:  16 05:12:18 -5819.474281c -4.49  -3.10
iter:  17 05:13:35 -5819.459726c -4.67  -3.13
iter:  18 05:14:52 -5819.467495c -5.29  -3.08
iter:  19 05:16:08 -5819.473547c -4.55  -3.12
iter:  20 05:17:32 -5819.451502c -4.95  -3.04
iter:  21 05:18:49 -5819.447226c -5.67  -3.38
iter:  22 05:20:05 -5819.445714c -6.16  -3.44
iter:  23 05:21:21 -5819.445926c -5.50  -3.59
iter:  24 05:22:38 -5819.443073c -5.99  -3.62
iter:  25 05:23:55 -5819.443203c -7.34  -4.09c
iter:  26 05:25:10 -5819.442811c -6.39  -4.12c
iter:  27 05:26:27 -5819.443372c -7.15  -4.22c
iter:  28 05:27:44 -5819.443196c -7.96c -4.25c

Converged after 28 iterations.

Dipole moment: (-82.788035, 17.198989, 0.000717) |e|*Ang

Energy contributions relative to reference atoms: (reference = -3367094.026518)

Kinetic:       +582.288746
Potential:     -635.449256
External:        +0.000000
XC:            -5764.812338
Entropy (-ST):   -0.737506
Local:           -1.101596
--------------------------
Free energy:   -5819.811949
Extrapolated:  -5819.443196

Showing only first 2 kpts
 Kpt  Band  Eigenvalues  Occupancy
  0   429      0.31061    1.63533
  0   430      0.60326    0.38747
  0   431      0.65697    0.24629
  0   432      0.69138    0.18107

  1   429      0.06740    1.96157
  1   430      0.14200    1.92066
  1   431      0.25883    1.76544
  1   432      0.31314    1.62773


Fermi level: 0.46067

No gap

Forces in eV/Ang:
  0 Cu   -0.05703    0.06308    0.11203
  1 Cu   -0.03624   -0.00162   -0.06492
  2 Cu    0.01134   -0.01977   -0.07089
  3 Cu   -0.26688    0.12194    0.17743
  4 Cu   -0.01040    0.00463   -0.04892
  5 Cu    0.00210   -0.01607   -0.07871
  6 Cu    0.00983   -0.00901   -0.07551
  7 Cu    0.00579    0.00650   -0.04227
  8 Cu   -0.00008   -0.00649   -0.04089
  9 Cu    0.00134   -0.00233   -0.03198
 10 Cu   -0.00015   -0.00187   -0.02047
 11 Cu    0.00332    0.00205   -0.04159
 12 Cu   -0.00031   -0.00499    0.01870
 13 Cu   -0.00182   -0.00334    0.04322
 14 Cu   -0.00008   -0.00096    0.02423
 15 Cu   -0.00018   -0.00313    0.02473
 16 Cu   -0.00841   -0.01995    0.07524
 17 Cu    0.00193    0.03193    0.05765
 18 Cu   -0.01133    0.05399    0.04036
 19 Cu    0.00226   -0.01786    0.05364
 20 Cu   -0.01535    0.02909   -0.01819
 21 Cu   -0.09424    0.01676   -0.27342
 22 Cu   -0.12845    0.00266    0.01455
 23 Cu    0.03803    0.05979   -0.00932
 24 Cu    0.09295   -0.01569    0.27707
 25 Cu   -0.04562   -0.03068   -0.05446
 26 Cu   -0.03698   -0.06261    0.01046
 27 Cu   -0.15396    0.07727   -0.25306
 28 Cu   -0.02054   -0.03176   -0.06862
 29 Cu    0.00862    0.01992   -0.07566
 30 Cu   -0.00464    0.01572   -0.08134
 31 Cu    0.01083   -0.05580   -0.03848
 32 Cu    0.00209    0.00373   -0.04541
 33 Cu   -0.00087    0.00044   -0.03248
 34 Cu   -0.00002    0.00355   -0.03026
 35 Cu   -0.00101   -0.00388   -0.03858
 36 Cu    0.00117    0.00453    0.02040
 37 Cu    0.00051    0.00703    0.03892
 38 Cu    0.00305    0.00242    0.06381
 39 Cu   -0.00019    0.00238    0.01556
 40 Cu   -0.00143    0.01702    0.07893
 41 Cu   -0.01171   -0.00301    0.01477
 42 Cu   -0.00566   -0.00698    0.04381
 43 Cu    0.00665    0.01561    0.10385
 44 Cu    0.03122   -0.04829    0.15441
 45 Cu    0.05547   -0.06185   -0.11074
 46 Cu   -0.14924   -0.31465    0.14393
 47 Cu   -0.01128    0.01992    0.07086
 48 Cu   -0.03218    0.04879   -0.15333
 49 Cu    0.15524    0.32586   -0.15134
 50 Cu    0.01264    0.00343   -0.01413
 51 Cu   -0.00537   -0.01485   -0.10518
 52 Cu   -0.00116   -0.00440   -0.02674
 53 Cu   -0.00322   -0.00213   -0.06552
 54 Cu    0.00095    0.00030    0.02726
 55 Cu    0.00181    0.00424    0.03566
 56 Cu    0.02090    0.03132    0.06902
 57 Cu    0.00618   -0.01504    0.08143
 58 Cu    0.04247    0.02950    0.05413
 59 Cu    0.15519   -0.07637    0.24756
 60 Cu    0.01665   -0.03015    0.01596
 61 Cu    0.12878   -0.00605   -0.01229
 62 Cu   -0.00038   -0.03277   -0.05725
 63 Cu   -0.00156    0.01767   -0.05540
 64 Cu    0.00012    0.00574   -0.02504
 65 Cu    0.00046    0.00136   -0.02667
 66 Cu   -0.00129    0.00252    0.02678
 67 Cu   -0.00286   -0.00192    0.03782
 68 Cu    0.01191   -0.00565    0.04832
 69 Cu   -0.00932    0.00913    0.07437
 70 Cu    0.03606    0.00250    0.06397
 71 Cu    0.26437   -0.12242   -0.17924
 72 Cl    0.09871    0.55865   -0.49882
 73 Cl   -0.27193   -0.02515    0.01566
 74 Cl   -0.14021    0.07718   -0.81989
 75 Cl    0.18424    0.01048    0.00829
 76 Cl   -0.10565   -0.22404   -0.11235
 77 Cl   -0.10528   -0.56335    0.51025
 78 Cl    0.26877    0.02648   -0.00892
 79 Cl    0.10334    0.22316    0.11921
 80 Cl   -0.17778   -0.01347   -0.00050
 81 Cl    0.14293   -0.07976    0.82535

System changes: positions 

Initializing position-dependent things.

Density initialized from wave functions
      .------------------.  
     /|                  |  
    / |                  |  
   /  |                  |  
  /   |                  |  
 *    |                  |  
 |    |                  |  
 |    |                  |  
 |    |                  |  
 |    |                  |  
 |    |                  |  
 |    |     Cl      Cl   |  
 |    |                  |  
 |Cl Cl  Cu    Cl     Cu |  
 |    |                  |  
 |    |            Cu    |  
 |  CuCu  CuCu   Cu      |  
 |    |CuCu  CuCu  CuCu  |  
 |    |                  |  
 |CuCuCuCu CCuCu CuCu    |  
 |    |CuCu    Cu  CuCu  |  
 |    |                  |  
 |    Cu    Cu     Cu    |  
 |  Cu|  CuCuCuCuCu  Cu  |  
 |    |                  |  
 |    | Cu               |  
 |  CuCu CCuCu CuCuCuCu  |  
 |    |            Cu    |  
 |Cu  |       Cu         |  
 |  CuCu   CCu   CuCuCu  |  
 |    |  Cu    Cu  Cu    |  
 |    |                  |  
 |Cu  CuCu CCu     Cu    |  
 |  Cu|         CCu      |  
 |    |                  |  
 Cu   | Cu           Cl  |  
 |    |          Cl      |  
 |    |                  |  
 |    |                  |  
 |    |                  |  
 |    |                  |  
 |    |                  |  
 |    .------------------.  
 |   /                  /   
 |  /                  /    
 | /                  /     
 |/                  /      
 *------------------*       

Positions:
   0 Cu     2.849527    0.007723    9.836701    ( 0.0000,  0.0000,  0.0000)
   1 Cu     1.557229    1.850899   11.256482    ( 0.0000,  0.0000,  0.0000)
   2 Cu     4.212784    1.851928   11.265337    ( 0.0000,  0.0000,  0.0000)
   3 Cu     0.122665    0.083372    9.825131    ( 0.0000,  0.0000,  0.0000)
   4 Cu     0.263749    0.018724   12.481096    ( 0.0000,  0.0000,  0.0000)
   5 Cu     4.200204    1.854553   13.912172    ( 0.0000,  0.0000,  0.0000)
   6 Cu     1.587240    1.851617   13.881770    ( 0.0000,  0.0000,  0.0000)
   7 Cu     2.894721    0.002094   12.492758    ( 0.0000,  0.0000,  0.0000)
   8 Cu     2.893454   -0.000384   15.199132    ( 0.0000,  0.0000,  0.0000)
   9 Cu     1.584442    1.847561   16.536248    ( 0.0000,  0.0000,  0.0000)
  10 Cu     4.206620    1.854505   16.545776    ( 0.0000,  0.0000,  0.0000)
  11 Cu     0.275837    0.006582   15.199570    ( 0.0000,  0.0000,  0.0000)
  12 Cu     0.280260   -0.003293   17.851935    ( 0.0000,  0.0000,  0.0000)
  13 Cu     4.213470    1.847137   19.186568    ( 0.0000,  0.0000,  0.0000)
  14 Cu     1.588726    1.844401   19.182383    ( 0.0000,  0.0000,  0.0000)
  15 Cu     2.901090    0.002710   17.844312    ( 0.0000,  0.0000,  0.0000)
  16 Cu     2.901342   -0.005091   20.495138    ( 0.0000,  0.0000,  0.0000)
  17 Cu     1.598254    1.848328   21.863624    ( 0.0000,  0.0000,  0.0000)
  18 Cu     4.215249    1.814976   21.870971    ( 0.0000,  0.0000,  0.0000)
  19 Cu     0.280806   -0.007202   20.497525    ( 0.0000,  0.0000,  0.0000)
  20 Cu     0.267468    0.035530   23.110145    ( 0.0000,  0.0000,  0.0000)
[...]

Initializing position-dependent things.

Density initialized from wave functions
      .------------------.  
     /|                  |  
    / |                  |  
   /  |                  |  
  /   |                  |  
 *    |                  |  
 |    |                  |  
 |    |                  |  
 |    |                  |  
 |    |                  |  
 |    |                  |  
 |    Cl            Cl   |  
 |    |                  |  
 |Cl  |       Clu     Cu |  
 |    |CuCu  Cu    Cu    |  
 |    |                  |  
 |  CuCuCl CCu   CuCu    |  
 |    |CuCu  CuCu  CuCu  |  
 |    |                  |  
 |    Cu    Cu     Cu    |  
 |  Cu|CuCuCuCuCuCuCuCu  |  
 |    |                  |  
 |    Cu    Cu     Cu    |  
 |  Cu|  CuCu  CuCu  Cu  |  
 |    |                  |  
 |    |                  |  
 |  CuCu CCuCu CuCuCuCu  |  
 |    |                  |  
 |Cu  | Cu    Cu         |  
 |  CuCu CCuCu CuCuCuCu  |  
 |    |                  |  
 |    |                  |  
 |CuCuCuCu CCuCu CuCu    |  
 |    |        Cl        |  
 |    |                  |  
 Cu   | Cul   Cu    Cl   |  
 |    |                  |  
 |    |          Cl      |  
 |    |                  |  
 |    |                  |  
 |    |                  |  
 |    |                  |  
 |    .------------------.  
 |   /                  /   
 |  /                  /    
 | /                  /     
 |/                  /      
 *------------------*       

Positions:
   0 Cu     2.810858    0.127960    9.943140    ( 0.0000,  0.0000,  0.0000)
   1 Cu     1.552625    1.876609   11.358890    ( 0.0000,  0.0000,  0.0000)
   2 Cu     4.190671    1.865739   11.353224    ( 0.0000,  0.0000,  0.0000)
   3 Cu     0.107581    0.133241    9.917289    ( 0.0000,  0.0000,  0.0000)
   4 Cu     0.260866    0.022236   12.574119    ( 0.0000,  0.0000,  0.0000)
   5 Cu     4.176534    1.868575   13.936006    ( 0.0000,  0.0000,  0.0000)
   6 Cu     1.571549    1.859916   13.941298    ( 0.0000,  0.0000,  0.0000)
   7 Cu     2.877145    0.003817   12.574526    ( 0.0000,  0.0000,  0.0000)
   8 Cu     2.882529    0.003354   15.221205    ( 0.0000,  0.0000,  0.0000)
   9 Cu     1.582588    1.851124   16.553300    ( 0.0000,  0.0000,  0.0000)
  10 Cu     4.201240    1.854801   16.549967    ( 0.0000,  0.0000,  0.0000)
  11 Cu     0.262070    0.006867   15.221927    ( 0.0000,  0.0000,  0.0000)
  12 Cu     0.288577   -0.004975   17.849787    ( 0.0000,  0.0000,  0.0000)
  13 Cu     4.225685    1.836192   19.179611    ( 0.0000,  0.0000,  0.0000)
  14 Cu     1.606475    1.836687   19.178384    ( 0.0000,  0.0000,  0.0000)
  15 Cu     2.905606   -0.003836   17.857475    ( 0.0000,  0.0000,  0.0000)
  16 Cu     2.920572   -0.007885   20.496684    ( 0.0000,  0.0000,  0.0000)
  17 Cu     1.626207    1.836609   21.828297    ( 0.0000,  0.0000,  0.0000)
  18 Cu     4.241584    1.816004   21.822343    ( 0.0000,  0.0000,  0.0000)
  19 Cu     0.303528   -0.013135   20.470993    ( 0.0000,  0.0000,  0.0000)
  20 Cu     0.308821   -0.019789   23.051638    ( 0.0000,  0.0000,  0.0000)
  21 Cu     4.168295    1.940200   24.456448    ( 0.0000,  0.0000,  0.0000)
  22 Cu     1.466474    1.937897   24.483525    ( 0.0000,  0.0000,  0.0000)
  23 Cu     2.927019   -0.019286   23.134602    ( 0.0000,  0.0000,  0.0000)
  24 Cu     2.935041    3.612122    9.938036    ( 0.0000,  0.0000,  0.0000)
  25 Cu     1.562301    5.573579   11.271020    ( 0.0000,  0.0000,  0.0000)
  26 Cu     4.176236    5.571785   11.259575    ( 0.0000,  0.0000,  0.0000)
  27 Cu     0.342105    3.667008   10.004597    ( 0.0000,  0.0000,  0.0000)
  28 Cu     0.254529    3.728296   12.586280    ( 0.0000,  0.0000,  0.0000)
  29 Cu     4.182897    5.560658   13.896168    ( 0.0000,  0.0000,  0.0000)
  30 Cu     1.563572    5.572624   13.901929    ( 0.0000,  0.0000,  0.0000)
  31 Cu     2.861529    3.736242   12.570689    ( 0.0000,  0.0000,  0.0000)
  32 Cu     2.878481    3.716126   15.213420    ( 0.0000,  0.0000,  0.0000)
  33 Cu     1.583848    5.554374   16.540284    ( 0.0000,  0.0000,  0.0000)
  34 Cu     4.198611    5.556494   16.535428    ( 0.0000,  0.0000,  0.0000)
  35 Cu     0.265280    3.711612   15.215096    ( 0.0000,  0.0000,  0.0000)
  36 Cu     0.287528    3.699449   17.842927    ( 0.0000,  0.0000,  0.0000)
  37 Cu     4.221649    5.549411   19.171739    ( 0.0000,  0.0000,  0.0000)
  38 Cu     1.609311    5.543374   19.179517    ( 0.0000,  0.0000,  0.0000)
  39 Cu     2.903018    3.697530   17.843167    ( 0.0000,  0.0000,  0.0000)
  40 Cu     2.927099    3.683854   20.456591    ( 0.0000,  0.0000,  0.0000)
  41 Cu     1.620932    5.545175   21.811331    ( 0.0000,  0.0000,  0.0000)
  42 Cu     4.226189    5.548970   21.819117    ( 0.0000,  0.0000,  0.0000)
  43 Cu     0.305581    3.686623   20.456981    ( 0.0000,  0.0000,  0.0000)
  44 Cu     0.307080    3.681243   23.059049    ( 0.0000,  0.0000,  0.0000)
  45 Cu     4.292619    5.423021   24.451676    ( 0.0000,  0.0000,  0.0000)
  46 Cu     1.698937    5.474849   24.398698    ( 0.0000,  0.0000,  0.0000)
  47 Cu     2.912676    3.686653   23.039734    ( 0.0000,  0.0000,  0.0000)
  48 Cu     6.796571    1.871119   11.335684    ( 0.0000,  0.0000,  0.0000)
  49 Cu     5.403124    0.077452    9.996104    ( 0.0000,  0.0000,  0.0000)
  50 Cu     5.482031    0.007674   12.582208    ( 0.0000,  0.0000,  0.0000)
  51 Cu     6.798121    1.865876   13.936921    ( 0.0000,  0.0000,  0.0000)
  52 Cu     6.817019    1.853087   16.550449    ( 0.0000,  0.0000,  0.0000)
  53 Cu     5.494580    0.009346   15.213775    ( 0.0000,  0.0000,  0.0000)
  54 Cu     5.520583   -0.001695   17.852502    ( 0.0000,  0.0000,  0.0000)
  55 Cu     6.839097    1.841084   19.178236    ( 0.0000,  0.0000,  0.0000)
  56 Cu     6.848789    1.824124   21.808090    ( 0.0000,  0.0000,  0.0000)
  57 Cu     5.540508   -0.019856   20.490913    ( 0.0000,  0.0000,  0.0000)
  58 Cu     5.540915   -0.020463   23.122908    ( 0.0000,  0.0000,  0.0000)
  59 Cu     6.761123    1.886911   24.390845    ( 0.0000,  0.0000,  0.0000)
  60 Cu     6.793910    5.572124   11.343515    ( 0.0000,  0.0000,  0.0000)
  61 Cu     5.636798    3.614003    9.912537    ( 0.0000,  0.0000,  0.0000)
  62 Cu     5.476365    3.715381   12.566338    ( 0.0000,  0.0000,  0.0000)
  63 Cu     6.799882    5.565996   13.923085    ( 0.0000,  0.0000,  0.0000)
  64 Cu     6.815716    5.557456   16.543735    ( 0.0000,  0.0000,  0.0000)
  65 Cu     5.497275    3.715825   15.215358    ( 0.0000,  0.0000,  0.0000)
  66 Cu     5.521748    3.701186   17.839789    ( 0.0000,  0.0000,  0.0000)
  67 Cu     6.842137    5.545669   19.171680    ( 0.0000,  0.0000,  0.0000)
  68 Cu     6.842351    5.530117   21.820141    ( 0.0000,  0.0000,  0.0000)
  69 Cu     5.532264    3.692606   20.451232    ( 0.0000,  0.0000,  0.0000)
  70 Cu     5.550932    3.675580   23.033688    ( 0.0000,  0.0000,  0.0000)
  71 Cu     6.995440    5.418433   24.478783    ( 0.0000,  0.0000,  0.0000)
  72 Cl     0.583219    5.263809   26.320593    ( 0.0000,  0.0000,  0.0000)
  73 Cl     4.218876    3.687497   26.005734    ( 0.0000,  0.0000,  0.0000)
  74 Cl     0.016857    2.102954   26.317973    ( 0.0000,  0.0000,  0.0000)
  75 Cl     2.719574    0.301259   25.621244    ( 0.0000,  0.0000,  0.0000)
  76 Cl     5.746770   -0.332244   25.596469    ( 0.0000,  0.0000,  0.0000)
  77 Cl     6.520387    0.286207    8.073690    ( 0.0000,  0.0000,  0.0000)
  78 Cl     2.888123    1.863408    8.390019    ( 0.0000,  0.0000,  0.0000)
  79 Cl     1.356846    5.884904    8.798638    ( 0.0000,  0.0000,  0.0000)
  80 Cl     4.383138    5.249911    8.774127    ( 0.0000,  0.0000,  0.0000)
  81 Cl     7.086204    3.448015    8.080934    ( 0.0000,  0.0000,  0.0000)

Unit cell:
           periodic     x           y           z      points  spacing
  1. axis:    yes    7.851007    0.000000    0.000000    45     0.1745
  2. axis:    yes    0.000000    7.402000    0.000000    42     0.1762
  3. axis:    yes    0.000000    0.000000   34.393512   196     0.1755

  Lengths:   7.851007   7.402000  34.393512
  Angles:   90.000000  90.000000  90.000000

Effective grid spacing dv^(1/3) = 0.1754

     iter     time        total  log10-change:
                         energy  eigst   dens
iter:   1 17:36:49 -5821.736292  -3.54
iter:   2 17:38:14 -5821.736136  -4.70  -3.41
iter:   3 17:39:30 -5821.733620c -5.65  -3.55
iter:   4 17:40:45 -5821.735740c -5.69  -3.66
iter:   5 17:42:00 -5821.733002c -5.48  -3.53
iter:   6 17:43:14 -5821.732643c -6.18  -3.90
iter:   7 17:44:30 -5821.732502c -6.42  -4.05c
iter:   8 17:45:56 -5821.732697c -6.25  -4.18c
iter:   9 17:47:10 -5821.732549c -7.10  -4.40c
iter:  10 17:48:26 -5821.732611c -6.95  -4.49c
iter:  11 17:49:41 -5821.732569c -7.34  -4.60c
iter:  12 17:50:55 -5821.732573c -7.36  -4.66c
iter:  13 17:52:11 -5821.732592c -7.91c -4.72c

Converged after 13 iterations.

Dipole moment: (-72.188157, -22.962845, -0.001373) |e|*Ang

Energy contributions relative to reference atoms: (reference = -3367094.026518)

Kinetic:       +607.670553
Potential:     -656.248834
External:        +0.000000
XC:            -5771.915156
Entropy (-ST):   -0.672139
Local:           -0.903086
--------------------------
Free energy:   -5822.068661
Extrapolated:  -5821.732592

Showing only first 2 kpts
 Kpt  Band  Eigenvalues  Occupancy
  0   429      0.41533    1.74170
  0   430      0.71524    0.50302
  0   431      0.76703    0.33358
  0   432      0.81957    0.21169

  1   429      0.18183    1.97169
  1   430      0.29250    1.91677
  1   431      0.39727    1.77967
  1   432      0.43427    1.69603


Fermi level: 0.60618

No gap

Forces in eV/Ang:
  0 Cu    0.00566    0.00109   -0.00531
  1 Cu   -0.00241   -0.00794   -0.00365
  2 Cu   -0.00715   -0.00479    0.00222
  3 Cu   -0.00209    0.00965    0.00062
  4 Cu    0.00059    0.00065   -0.01084
  5 Cu    0.00495    0.00015   -0.00010
  6 Cu   -0.00408   -0.00364   -0.00677
  7 Cu    0.00747   -0.00876    0.00219
  8 Cu    0.00015    0.00095   -0.00621
  9 Cu    0.00130    0.00099   -0.00737
 10 Cu    0.00271    0.00059   -0.00415
 11 Cu    0.00460   -0.00408   -0.00693
 12 Cu   -0.00480    0.00205    0.00347
 13 Cu   -0.00748   -0.00075   -0.00026
 14 Cu   -0.00503    0.01136    0.00100
 15 Cu   -0.00385    0.00263   -0.00575
 16 Cu   -0.00471    0.00147    0.00001
 17 Cu   -0.00222   -0.00239   -0.00416
 18 Cu   -0.00412    0.00814    0.00108
 19 Cu    0.00242    0.00416   -0.00220
 20 Cu    0.00090    0.00335   -0.00316
 21 Cu    0.00517    0.00105    0.00695
 22 Cu    0.01064    0.00509    0.00414
 23 Cu   -0.00556    0.00808    0.00409
 24 Cu   -0.00610   -0.00060   -0.00741
 25 Cu    0.00403   -0.00317   -0.00487
 26 Cu    0.00544   -0.00949   -0.00250
 27 Cu   -0.00339   -0.00117    0.01281
 28 Cu    0.01384   -0.00417    0.00893
 29 Cu    0.00546   -0.00255    0.00145
 30 Cu   -0.00004   -0.00469   -0.00571
 31 Cu    0.00347   -0.00825    0.00051
 32 Cu    0.00678    0.00117   -0.00132
 33 Cu    0.00112    0.00025   -0.00450
 34 Cu    0.00421   -0.00329    0.00443
 35 Cu    0.00097   -0.00612   -0.00092
 36 Cu   -0.00654    0.00295   -0.00563
 37 Cu   -0.00097   -0.00134    0.00539
 38 Cu   -0.00690    0.00089   -0.01130
 39 Cu   -0.00240    0.00053    0.00131
 40 Cu   -0.00445    0.00059    0.00235
 41 Cu   -0.00610   -0.00372   -0.00647
 42 Cu   -0.00784    0.00889   -0.00251
 43 Cu   -0.00521    0.00760    0.00079
 44 Cu    0.00561    0.00204   -0.00468
 45 Cu   -0.00734    0.00086    0.00571
 46 Cu   -0.00331    0.01213   -0.00525
 47 Cu    0.00668    0.00552    0.00040
 48 Cu   -0.00626   -0.00193    0.00342
 49 Cu    0.01355   -0.01143   -0.00279
 50 Cu    0.00802    0.00330    0.00889
 51 Cu    0.00561   -0.00708   -0.00171
 52 Cu    0.00633   -0.00256    0.00355
 53 Cu    0.00752   -0.00154    0.01033
 54 Cu   -0.00142   -0.00102    0.00448
 55 Cu   -0.00240    0.00567    0.00073
 56 Cu   -0.01419    0.00424   -0.00983
 57 Cu   -0.00150    0.00375    0.00730
 58 Cu   -0.00449    0.00103    0.00845
 59 Cu    0.01355    0.00060    0.00275
 60 Cu   -0.00015   -0.00284    0.00116
 61 Cu   -0.01607   -0.00413    0.00218
 62 Cu    0.00530    0.00383    0.00312
 63 Cu   -0.00153   -0.00566    0.00084
 64 Cu    0.00514   -0.00207   -0.00534
 65 Cu    0.00635   -0.01166   -0.00360
 66 Cu   -0.00117    0.00017    0.00571
 67 Cu   -0.00515    0.00389    0.00479
 68 Cu   -0.00022    0.00062    0.01077
 69 Cu    0.00282    0.00379    0.00861
 70 Cu   -0.00001    0.00873    0.00673
 71 Cu   -0.00367   -0.00840   -0.00500
 72 Cl    0.00047   -0.00617   -0.01460
 73 Cl    0.00490    0.00579   -0.00003
 74 Cl    0.00029    0.00175   -0.01375
 75 Cl    0.00606    0.00444   -0.02839
 76 Cl   -0.01155   -0.00509    0.00396
 77 Cl   -0.00067    0.00832    0.02439
 78 Cl   -0.00673   -0.00387   -0.00099
 79 Cl    0.00806    0.00358   -0.00758
 80 Cl   -0.00296   -0.00393    0.02625
 81 Cl   -0.00341   -0.00630   -0.01168

Timing:                                      incl.     excl.
-------------------------------------------------------------------
Density initialized from wave functions:   253.960   253.958   0.4% |
 Symmetrize density:                         0.002     0.002   0.0% |
Forces:                                   1227.585  1227.585   2.0% ||
Hamiltonian:                               384.505     0.650   0.0% |
 Atomic:                                    19.421    10.490   0.0% |
  XC Correction:                             8.931     8.931   0.0% |
 Calculate atomic Hamiltonians:            113.927   113.927   0.2% |
 Communicate:                                5.160     5.160   0.0% |
 Initialize Hamiltonian:                     0.001     0.001   0.0% |
 Poisson:                                    0.262     0.262   0.0% |
 XC 3D grid:                               245.083    33.229   0.1% |
  VdW-DF integral:                         211.854     8.405   0.0% |
   Convolution:                             13.092    13.092   0.0% |
   FFT:                                      6.317     6.317   0.0% |
   gather:                                  84.902    84.902   0.1% |
   hmm1:                                     4.197     4.197   0.0% |
   hmm2:                                     9.442     9.442   0.0% |
   iFFT:                                     6.555     6.555   0.0% |
   potential:                               73.548     0.942   0.0% |
    collect:                                11.511    11.511   0.0% |
    p1:                                     31.482    31.482   0.1% |
    p2:                                     13.855    13.855   0.0% |
    sum:                                    15.758    15.758   0.0% |
   splines:                                  5.396     5.396   0.0% |
LCAO initialization:                       395.869     0.510   0.0% |
 LCAO eigensolver:                          13.282     0.004   0.0% |
  Blacs Orbital Layouts:                     1.317     0.004   0.0% |
   General diagonalize:                      1.287     1.287   0.0% |
   Redistribute coefs:                       0.016     0.016   0.0% |
   Send coefs to domains:                    0.009     0.009   0.0% |
  Calculate projections:                     0.026     0.026   0.0% |
  Distribute overlap matrix:                11.292     0.005   0.0% |
   Scalapack redistribute:                   0.037     0.037   0.0% |
   blocked summation:                       11.251    11.251   0.0% |
  Potential matrix:                          0.331     0.331   0.0% |
  SparseAtomicCorrection:                    0.041     0.041   0.0% |
  Sum over cells:                            0.270     0.270   0.0% |
 LCAO to grid:                             379.188   379.188   0.6% |
 Set positions (LCAO WFS):                   2.888     0.070   0.0% |
  Basic WFS set positions:                   0.003     0.003   0.0% |
  Basis functions set positions:             0.000     0.000   0.0% |
  P tci:                                     0.076     0.076   0.0% |
  ST tci:                                    0.573     0.573   0.0% |
  Scalapack redistribute:                    0.060     0.060   0.0% |
  blocked summation:                         1.898     1.898   0.0% |
  mktci:                                     0.207     0.207   0.0% |
PWDescriptor:                                0.810     0.810   0.0% |
Redistribute:                                0.664     0.664   0.0% |
SCF-cycle:                               58778.674  2232.957   3.6% ||
 Davidson:                               44597.985 11841.196  19.3% |-------|
  Apply H:                                3992.475  3916.871   6.4% |--|
   HMM T:                                   75.604    75.604   0.1% |
  Subspace diag:                          7353.299     0.178   0.0% |
   calc_h_matrix:                         5220.986  1295.914   2.1% ||
    Apply H:                              3925.072  3849.023   6.3% |--|
     HMM T:                                 76.049    76.049   0.1% |
   diagonalize:                            255.750   255.750   0.4% |
   rotate_psi:                            1876.386  1876.386   3.1% ||
  calc. matrices:                        16202.020  8434.892  13.7% |----|
   Apply H:                               7767.128  7617.418  12.4% |----|
    HMM T:                                 149.710   149.710   0.2% |
  diagonalize:                            1678.612  1678.612   2.7% ||
  rotate_psi:                             3530.382  3530.382   5.8% |-|
 Density:                                 4772.229     0.039   0.0% |
  Atomic density matrices:                  21.307    21.307   0.0% |
  Mix:                                    2474.135  2474.135   4.0% |-|
  Multipole moments:                         0.776     0.776   0.0% |
  Pseudo density:                         2275.972  2275.939   3.7% ||
   Symmetrize density:                       0.033     0.033   0.0% |
 Hamiltonian:                             6934.098    12.682   0.0% |
  Atomic:                                  335.492   166.387   0.3% |
   XC Correction:                          169.105   169.105   0.3% |
  Calculate atomic Hamiltonians:          2070.859  2070.859   3.4% ||
  Communicate:                              91.292    91.292   0.1% |
  Poisson:                                   4.478     4.478   0.0% |
  XC 3D grid:                             4419.296   619.002   1.0% |
   VdW-DF integral:                       3800.294   152.503   0.2% |
    Convolution:                           241.184   241.184   0.4% |
    FFT:                                   116.161   116.161   0.2% |
    gather:                               1564.844  1564.844   2.5% ||
    hmm1:                                   77.709    77.709   0.1% |
    hmm2:                                  175.589   175.589   0.3% |
    iFFT:                                  122.382   122.382   0.2% |
    potential:                            1349.914    16.429   0.0% |
     collect:                              209.690   209.690   0.3% |
     p1:                                   583.805   583.805   1.0% |
     p2:                                   251.062   251.062   0.4% |
     sum:                                  288.928   288.928   0.5% |
    splines:                                 0.008     0.008   0.0% |
 Orthonormalize:                           241.405     0.017   0.0% |
  calc_s_matrix:                            32.285    32.285   0.1% |
  inverse-cholesky:                          8.626     8.626   0.0% |
  projections:                             150.151   150.151   0.2% |
  rotate_psi_s:                             50.326    50.326   0.1% |
Set symmetry:                                0.001     0.001   0.0% |
Other:                                     344.971   344.971   0.6% |
-------------------------------------------------------------------
Total:                                             61387.040 100.0%

Memory usage: 1.57 GiB
Date: Sun Oct  9 17:52:42 2022
