
  ___ ___ ___ _ _ _  
 |   |   |_  | | | | 
 | | | | | . | | | | 
 |__ |  _|___|_____|  22.1.0
 |___|_|             

User:   thorkong@node433.cluster
Date:   Wed Oct 12 16:39:53 2022
Arch:   x86_64
Pid:    33356
Python: 3.10.5
gpaw:   /groups/kemi/thorkong/miniconda3/envs/gpaw22/lib/python3.10/site-packages/gpaw
_gpaw:  /groups/kemi/thorkong/miniconda3/envs/gpaw22/lib/python3.10/site-packages/
        _gpaw.cpython-310-x86_64-linux-gnu.so
ase:    /groups/kemi/thorkong/miniconda3/envs/gpaw22/lib/python3.10/site-packages/ase (version 3.22.1)
numpy:  /groups/kemi/thorkong/miniconda3/envs/gpaw22/lib/python3.10/site-packages/numpy (version 1.23.0)
scipy:  /groups/kemi/thorkong/miniconda3/envs/gpaw22/lib/python3.10/site-packages/scipy (version 1.8.1)
libxc:  5.2.3
units:  Angstrom and eV
cores: 32
OpenMP: True
OMP_NUM_THREADS: 1

Input parameters:
  basis: dzp
  kpts: [4 4 1]
  mode: {ecut: 600.0,
         name: pw}
  xc: BEEF-vdW

System changes: positions, numbers, cell, pbc, initial_charges, initial_magmoms 

Initialize ...

Cu-setup:
  name: Copper
  id: f1c4d45d90492f1bbfdcb091e8418fdf
  Z: 29.0
  valence: 11
  core: 18
  charge: 0.0
  file: /groups/kemi/thorkong/miniconda3/envs/gpaw22/share/gpaw/Cu.PBE.gz
  compensation charges: gauss, rc=0.33, lmax=2
  cutoffs: 2.06(filt), 2.43(core),
  valence states:
                energy  radius
    4s(1.00)    -4.609   1.164
    4p(0.00)    -0.698   1.164
    3d(10.00)    -5.039   1.058
    *s          22.603   1.164
    *p          26.513   1.164
    *d          22.172   1.058

  LCAO basis set for Cu:
    Name: dzp
    File: /groups/kemi/thorkong/miniconda3/envs/gpaw22/share/gpaw/Cu.dzp.basis.gz
    Number of radial functions: 5
    Number of spherical harmonics: 15
      l=0, rc=8.9688 Bohr: 4s-sz confined orbital
      l=2, rc=5.1719 Bohr: 3d-sz confined orbital
      l=0, rc=5.3281 Bohr: 4s-dz split-valence wave
      l=2, rc=3.1406 Bohr: 3d-dz split-valence wave
      l=1, rc=8.9688 Bohr: p-type Gaussian polarization

Cl-setup:
  name: Chlorine
  id: 726897f06f34e53cf8e33b5885a02604
  Z: 17.0
  valence: 7
  core: 10
  charge: 0.0
  file: /groups/kemi/thorkong/miniconda3/envs/gpaw22/share/gpaw/Cl.PBE.gz
  compensation charges: gauss, rc=0.25, lmax=2
  cutoffs: 1.40(filt), 1.49(core),
  valence states:
                energy  radius
    3s(2.00)   -20.689   0.794
    3p(5.00)    -8.594   0.794
    *s           6.523   0.794
    *p          18.617   0.794
    *d           0.000   0.794

  LCAO basis set for Cl:
    Name: dzp
    File: /groups/kemi/thorkong/miniconda3/envs/gpaw22/share/gpaw/Cl.dzp.basis.gz
    Number of radial functions: 5
    Number of spherical harmonics: 13
      l=0, rc=5.1719 Bohr: 3s-sz confined orbital
      l=1, rc=6.2656 Bohr: 3p-sz confined orbital
      l=0, rc=2.8281 Bohr: 3s-dz split-valence wave
      l=1, rc=3.5156 Bohr: 3p-dz split-valence wave
      l=2, rc=6.2656 Bohr: d-type Gaussian polarization

Reference energy: -4522938.567079

Spin-paired calculation

Convergence criteria:
 Maximum [total energy] change in last 3 cyles: 0.0005 eV / electron
 Maximum integral of absolute [dens]ity change: 0.0001 electrons / valence electron
 Maximum integral of absolute [eigenst]ate change: 4e-08 eV^2 / valence electron
 Maximum number of scf [iter]ations: 333
 (Square brackets indicate name in SCF output, whereas a 'c' in
 the SCF output indicates the quantity has converged.)

Symmetries present (total): 2

  ( 1  0  0)  ( 1  0  0)
  ( 0  1  0)  ( 0 -1  0)
  ( 0  0  1)  ( 0  0  1)

16 k-points: 4 x 4 x 1 Monkhorst-Pack grid
4 k-points in the irreducible part of the Brillouin zone
       k-points in crystal coordinates                weights
   0:     0.12500000    0.12500000    0.00000000          4/16
   1:     0.12500000    0.37500000    0.00000000          4/16
   2:     0.37500000    0.12500000    0.00000000          4/16
   3:     0.37500000    0.37500000    0.00000000          4/16

Wave functions: Plane wave expansion
  Cutoff energy: 600.000 eV
  Number of coefficients (min, max): 96699, 96750
  Pulay-stress correction: 0.000000 eV/Ang^3 (de/decut=0.000000)
  Using FFTW library
  ScaLapack parameters: grid=4x2, blocksize=64
  Wavefunction extrapolation:
    Improved wavefunction reuse through dual PAW basis 

Occupation numbers: Fermi-Dirac: width=0.1000 eV
 

Eigensolver
   Davidson(niter=2) 

Densities:
  Coarse grid: 70*42*192 grid
  Fine grid: 140*84*384 grid
  Total Charge: 0.000000 

Density mixing:
  Method: separate
  Backend: pulay
  Linear mixing parameter: 0.05
  Mixing with 5 old densities
  Damping of long wave oscillations: 50 

Hamiltonian:
  XC and Coulomb potentials evaluated on a 140*84*384 grid
  Using the BEEF-vdW Exchange-Correlation functional
  External potential:
    NoExternalPotential
 

XC parameters: BEEF-vdW with 2 nearest neighbor stencil

Memory estimate:
  Process memory now: 343.68 MiB
  Calculator: 2236.27 MiB
    Density: 35.43 MiB
      Arrays: 14.00 MiB
      Localized functions: 16.05 MiB
      Mixer: 5.38 MiB
    Hamiltonian: 9.54 MiB
      Arrays: 9.15 MiB
      XC: 0.00 MiB
      Poisson: 0.00 MiB
      vbar: 0.39 MiB
    Wavefunctions: 2191.30 MiB
      Arrays psit_nG: 1040.78 MiB
      Eigensolver: 1124.03 MiB
      Projections: 2.60 MiB
      Projectors: 1.85 MiB
      PW-descriptor: 22.04 MiB

Total number of cores used: 32
Parallelization over k-points: 4
Domain decomposition: 2 x 1 x 4
                      2 x 2 x 8 (xc only)

Number of atoms: 112
Number of atomic orbitals: 1648
Number of bands in calculation: 705
Number of valence electrons: 1168
Bands to converge: occupied

... initialized

Initializing position-dependent things.

Density initialized from atomic densities
Creating initial wave functions:
  705 bands from LCAO basis set

      .----------------------------.  
     /|                            |  
    / |                            |  
   /  |                            |  
  /   |                            |  
 *    |                            |  
 |    |                            |  
 |    |                            |  
 |    |                            |  
 |    |                            |  
 |    |                            |  
 |    |           Cl             Cl|  
 |    |                            |  
 |    |  Cl             Cl         |  
 |    |       CuCl           CCl   |  
 |    | Cu       Cu    Cu       Cu |  
 |    |Cl   Cu   Cu  Cl   Cu    Cu |  
 |    Cu   Cu       Cu    Cu       |  
 |    Cu   Cu  Cu   Cu    Cu Cu    |  
 |   Cu  Cu    Cu   Cu Cu    Cu    |  
 |    |  Cu   Cu       Cu    Cu    |  
 | Cu | Cu    Cu  Cu   Cu    Cu    |  
 | Cu | Cu  Cu   Cu    Cu Cu       |  
 |    |     Cu   Cu       Cu    Cu |  
 |    Cu   Cu    Cu Cu    Cu    Cu |  
 |    Cu   Cu  Cu   Cu    Cu Cu    |  
 |   Cu        Cu   Cu       Cu    |  
 |    |  Cu   Cu       Cu    Cu    |  
 | Cu | Cu    Cu  Cu   Cu    Cu    |  
 | Cu | Cu  Cu   Cu    Cu Cu       |  
 |    |     Cu   Cu       Cu    Cu |  
 |    Cu   Cu       Cu    Cu       |  
 |    Cu       Cul  Cu       CuCl  |  
 |    |  Cu            Cu          |  
 |    |Cl     Cl      Cl    Cl     |  
 |    |                            |  
 |   Cl            Cl              |  
 |    |                            |  
 |    |                            |  
 |    |                            |  
 |    |                            |  
 |    .----------------------------.  
 |   /                            /   
 |  /                            /    
 | /                            /     
 |/                            /      
 *----------------------------*       

Positions:
   0 Cu     3.197531    0.000000   10.218715    ( 0.0000,  0.0000,  0.0000)
   1 Cu     1.444817    1.850500   10.524258    ( 0.0000,  0.0000,  0.0000)
   2 Cu     7.296612    1.850500   10.524258    ( 0.0000,  0.0000,  0.0000)
   3 Cu     9.049325    0.000000   10.218715    ( 0.0000,  0.0000,  0.0000)
   4 Cu    11.458838    0.000000   11.066615    ( 0.0000,  0.0000,  0.0000)
   5 Cu     9.696234    1.850500   11.797005    ( 0.0000,  0.0000,  0.0000)
   6 Cu     3.844439    1.850500   11.797005    ( 0.0000,  0.0000,  0.0000)
   7 Cu     5.607043    0.000000   11.066615    ( 0.0000,  0.0000,  0.0000)
   8 Cu     7.862418    0.000000   12.394542    ( 0.0000,  0.0000,  0.0000)
   9 Cu     6.146132    1.850500   12.912120    ( 0.0000,  0.0000,  0.0000)
  10 Cu     0.294337    1.850500   12.912120    ( 0.0000,  0.0000,  0.0000)
  11 Cu     2.010623    0.000000   12.394542    ( 0.0000,  0.0000,  0.0000)
  12 Cu     4.397544    0.000000   13.499532    ( 0.0000,  0.0000,  0.0000)
  13 Cu     2.623053    1.850500   14.104583    ( 0.0000,  0.0000,  0.0000)
  14 Cu     8.474847    1.850500   14.104583    ( 0.0000,  0.0000,  0.0000)
  15 Cu    10.249339    0.000000   13.499532    ( 0.0000,  0.0000,  0.0000)
  16 Cu     0.847548    0.000000   14.699589    ( 0.0000,  0.0000,  0.0000)
  17 Cu    10.805471    1.850500   15.269050    ( 0.0000,  0.0000,  0.0000)
  18 Cu     4.953676    1.850500   15.269050    ( 0.0000,  0.0000,  0.0000)
  19 Cu     6.699343    0.000000   14.699588    ( 0.0000,  0.0000,  0.0000)
  20 Cu     9.047494    0.000000   15.845173    ( 0.0000,  0.0000,  0.0000)
  21 Cu     7.289704    1.850500   16.432160    ( 0.0000,  0.0000,  0.0000)
  22 Cu     1.437909    1.850500   16.432160    ( 0.0000,  0.0000,  0.0000)
  23 Cu     3.195699    0.000000   15.845173    ( 0.0000,  0.0000,  0.0000)
  24 Cu     5.519175    0.000000   17.027261    ( 0.0000,  0.0000,  0.0000)
  25 Cu     3.761405    1.850500   17.614356    ( 0.0000,  0.0000,  0.0000)
  26 Cu     9.613200    1.850500   17.614357    ( 0.0000,  0.0000,  0.0000)
  27 Cu    11.370970    0.000000   17.027262    ( 0.0000,  0.0000,  0.0000)
  28 Cu     2.003431    0.000000   18.190398    ( 0.0000,  0.0000,  0.0000)
  29 Cu     0.257729    1.850500   18.759731    ( 0.0000,  0.0000,  0.0000)
  30 Cu     6.109524    1.850500   18.759731    ( 0.0000,  0.0000,  0.0000)
  31 Cu     7.855226    0.000000   18.190398    ( 0.0000,  0.0000,  0.0000)
  32 Cu    10.185696    0.000000   19.354844    ( 0.0000,  0.0000,  0.0000)
  33 Cu     8.411164    1.850500   19.959946    ( 0.0000,  0.0000,  0.0000)
  34 Cu     2.559370    1.850500   19.959946    ( 0.0000,  0.0000,  0.0000)
  35 Cu     4.333902    0.000000   19.354844    ( 0.0000,  0.0000,  0.0000)
  36 Cu     6.662592    0.000000   20.547215    ( 0.0000,  0.0000,  0.0000)
  37 Cu     4.946563    1.850500   21.064790    ( 0.0000,  0.0000,  0.0000)
  38 Cu    10.798357    1.850500   21.064791    ( 0.0000,  0.0000,  0.0000)
  39 Cu     0.810797    0.000000   20.547216    ( 0.0000,  0.0000,  0.0000)
  40 Cu     3.112574    0.000000   21.662385    ( 0.0000,  0.0000,  0.0000)
  41 Cu     1.350079    1.850500   22.392776    ( 0.0000,  0.0000,  0.0000)
  42 Cu     7.201874    1.850500   22.392777    ( 0.0000,  0.0000,  0.0000)
  43 Cu     8.964368    0.000000   21.662386    ( 0.0000,  0.0000,  0.0000)
  44 Cu    11.364175    0.000000   22.935117    ( 0.0000,  0.0000,  0.0000)
  45 Cu     9.611589    1.850500   23.240567    ( 0.0000,  0.0000,  0.0000)
  46 Cu     3.759794    1.850500   23.240567    ( 0.0000,  0.0000,  0.0000)
  47 Cu     5.512380    0.000000   22.935117    ( 0.0000,  0.0000,  0.0000)
  48 Cu     3.197530    3.701000   10.218715    ( 0.0000,  0.0000,  0.0000)
  49 Cu     1.444817    5.551500   10.524258    ( 0.0000,  0.0000,  0.0000)
  50 Cu     7.296612    5.551500   10.524258    ( 0.0000,  0.0000,  0.0000)
  51 Cu     9.049325    3.701000   10.218714    ( 0.0000,  0.0000,  0.0000)
  52 Cu    11.458838    3.701000   11.066615    ( 0.0000,  0.0000,  0.0000)
  53 Cu     9.696234    5.551500   11.797005    ( 0.0000,  0.0000,  0.0000)
  54 Cu     3.844439    5.551500   11.797005    ( 0.0000,  0.0000,  0.0000)
  55 Cu     5.607043    3.701000   11.066615    ( 0.0000,  0.0000,  0.0000)
  56 Cu     7.862418    3.701000   12.394542    ( 0.0000,  0.0000,  0.0000)
  57 Cu     6.146132    5.551500   12.912120    ( 0.0000,  0.0000,  0.0000)
  58 Cu     0.294337    5.551500   12.912120    ( 0.0000,  0.0000,  0.0000)
  59 Cu     2.010623    3.701000   12.394542    ( 0.0000,  0.0000,  0.0000)
  60 Cu     4.397544    3.701000   13.499532    ( 0.0000,  0.0000,  0.0000)
  61 Cu     2.623053    5.551500   14.104583    ( 0.0000,  0.0000,  0.0000)
  62 Cu     8.474847    5.551500   14.104583    ( 0.0000,  0.0000,  0.0000)
  63 Cu    10.249339    3.701000   13.499532    ( 0.0000,  0.0000,  0.0000)
  64 Cu     0.847548    3.701000   14.699589    ( 0.0000,  0.0000,  0.0000)
  65 Cu    10.805471    5.551500   15.269050    ( 0.0000,  0.0000,  0.0000)
  66 Cu     4.953676    5.551500   15.269050    ( 0.0000,  0.0000,  0.0000)
  67 Cu     6.699343    3.701000   14.699588    ( 0.0000,  0.0000,  0.0000)
  68 Cu     9.047494    3.701000   15.845173    ( 0.0000,  0.0000,  0.0000)
  69 Cu     7.289704    5.551500   16.432160    ( 0.0000,  0.0000,  0.0000)
  70 Cu     1.437909    5.551500   16.432160    ( 0.0000,  0.0000,  0.0000)
  71 Cu     3.195699    3.701000   15.845173    ( 0.0000,  0.0000,  0.0000)
  72 Cu     5.519175    3.701000   17.027261    ( 0.0000,  0.0000,  0.0000)
  73 Cu     3.761405    5.551500   17.614356    ( 0.0000,  0.0000,  0.0000)
  74 Cu     9.613200    5.551500   17.614357    ( 0.0000,  0.0000,  0.0000)
  75 Cu    11.370970    3.701000   17.027262    ( 0.0000,  0.0000,  0.0000)
  76 Cu     2.003431    3.701000   18.190398    ( 0.0000,  0.0000,  0.0000)
  77 Cu     0.257729    5.551500   18.759731    ( 0.0000,  0.0000,  0.0000)
  78 Cu     6.109524    5.551500   18.759731    ( 0.0000,  0.0000,  0.0000)
  79 Cu     7.855226    3.701000   18.190398    ( 0.0000,  0.0000,  0.0000)
  80 Cu    10.185696    3.701000   19.354844    ( 0.0000,  0.0000,  0.0000)
  81 Cu     8.411164    5.551500   19.959946    ( 0.0000,  0.0000,  0.0000)
  82 Cu     2.559370    5.551500   19.959946    ( 0.0000,  0.0000,  0.0000)
  83 Cu     4.333902    3.701000   19.354844    ( 0.0000,  0.0000,  0.0000)
  84 Cu     6.662592    3.701000   20.547215    ( 0.0000,  0.0000,  0.0000)
  85 Cu     4.946563    5.551500   21.064790    ( 0.0000,  0.0000,  0.0000)
  86 Cu    10.798357    5.551500   21.064791    ( 0.0000,  0.0000,  0.0000)
  87 Cu     0.810797    3.701000   20.547215    ( 0.0000,  0.0000,  0.0000)
  88 Cu     3.112574    3.701000   21.662385    ( 0.0000,  0.0000,  0.0000)
  89 Cu     1.350079    5.551500   22.392776    ( 0.0000,  0.0000,  0.0000)
  90 Cu     7.201874    5.551500   22.392777    ( 0.0000,  0.0000,  0.0000)
  91 Cu     8.964368    3.701000   21.662385    ( 0.0000,  0.0000,  0.0000)
  92 Cu    11.364175    3.701000   22.935117    ( 0.0000,  0.0000,  0.0000)
  93 Cu     9.611589    5.551500   23.240567    ( 0.0000,  0.0000,  0.0000)
  94 Cu     3.759794    5.551500   23.240567    ( 0.0000,  0.0000,  0.0000)
  95 Cu     5.512380    3.701000   22.935117    ( 0.0000,  0.0000,  0.0000)
  96 Cl     8.155947    3.701000   24.803154    ( 0.0000,  0.0000,  0.0000)
  97 Cl     5.431057    5.551500   25.418327    ( 0.0000,  0.0000,  0.0000)
  98 Cl     2.304152    3.701000   24.803154    ( 0.0000,  0.0000,  0.0000)
  99 Cl     2.304151    0.000000   24.803154    ( 0.0000,  0.0000,  0.0000)
 100 Cl     5.431057    1.850500   25.418327    ( 0.0000,  0.0000,  0.0000)
 101 Cl     8.155947    0.000000   24.803156    ( 0.0000,  0.0000,  0.0000)
 102 Cl    11.282852    5.551499   25.418327    ( 0.0000,  0.0000,  0.0000)
 103 Cl    11.282852    1.850501   25.418327    ( 0.0000,  0.0000,  0.0000)
 104 Cl     7.377713    3.701000    8.040846    ( 0.0000,  0.0000,  0.0000)
 105 Cl     7.377713    0.000000    8.040847    ( 0.0000,  0.0000,  0.0000)
 106 Cl     4.652816    1.850500    8.655858    ( 0.0000,  0.0000,  0.0000)
 107 Cl     4.652816    5.551500    8.655858    ( 0.0000,  0.0000,  0.0000)
 108 Cl     1.525919    0.000000    8.040847    ( 0.0000,  0.0000,  0.0000)
 109 Cl     1.525919    3.701000    8.040847    ( 0.0000,  0.0000,  0.0000)
 110 Cl    -1.198979    1.850500    8.655858    ( 0.0000,  0.0000,  0.0000)
 111 Cl    -1.198979    5.551500    8.655858    ( 0.0000,  0.0000,  0.0000)

Unit cell:
           periodic     x           y           z      points  spacing
  1. axis:    yes   11.703590    0.000000    0.000000    70     0.1672
  2. axis:    yes    0.000000    7.402000    0.000000    42     0.1762
  3. axis:    no     0.000000    0.000000   33.459128   192     0.1743

  Lengths:  11.703590   7.402000  33.459128
  Angles:   90.000000  90.000000  90.000000

Effective grid spacing dv^(1/3) = 0.1725

     iter     time        total  log10-change:
                         energy  eigst   dens
iter:   1 16:53:18 -8898.422410
iter:   2 16:55:51 -11273.122652  +1.94  -0.63
iter:   3 16:58:25 -8274.512305  +2.05  -0.47
iter:   4 17:00:57 -8196.894587  +0.41  -0.88
iter:   5 17:03:31 -7981.386927  -0.69  -1.08
iter:   6 17:06:04 -8005.633130  -1.36  -1.23
iter:   7 17:08:37 -7923.348683  -1.54  -1.19
iter:   8 17:11:12 -7923.695368  -0.90  -1.38
iter:   9 17:13:46 -7889.289703  -1.72  -1.37
iter:  10 17:16:20 -7863.642447  -1.98  -1.44
iter:  11 17:18:52 -7881.465634  -2.10  -1.52
iter:  12 17:21:26 -7857.734703  -1.82  -1.45
iter:  13 17:24:00 -7852.505851  -1.69  -1.56
iter:  14 17:26:32 -7853.988419  -2.34  -1.59
iter:  15 17:29:06 -7857.717456  -2.14  -1.63
iter:  16 17:31:41 -7859.774376  -2.08  -1.59
iter:  17 17:34:15 -7854.656359  -3.21  -1.58
iter:  18 17:36:48 -7851.047483  -2.27  -1.68
iter:  19 17:39:22 -7850.473151  -2.68  -1.72
iter:  20 17:41:55 -7852.347238  -3.12  -1.75
iter:  21 17:44:27 -7849.054377  -3.02  -1.72
iter:  22 17:47:00 -7848.464641  -3.08  -1.81
iter:  23 17:49:34 -7851.353738  -2.32  -1.94
iter:  24 17:52:07 -7847.422705  -3.12  -2.02
iter:  25 17:54:42 -7847.382708  -3.81  -2.29
iter:  26 17:57:16 -7847.349094c -4.91  -2.29
iter:  27 17:59:49 -7847.125891c -4.41  -2.29
iter:  28 18:02:21 -7846.993740c -4.69  -2.31
iter:  29 18:04:55 -7847.373464c -3.40  -2.36
iter:  30 18:07:28 -7847.561173c -3.40  -2.31
iter:  31 18:10:01 -7847.080984c -3.67  -2.30
iter:  32 18:12:35 -7846.945782  -3.96  -2.55
iter:  33 18:15:08 -7846.944981c -4.82  -2.58
iter:  34 18:17:42 -7847.075477c -3.88  -2.57
iter:  35 18:20:16 -7846.908156c -4.16  -2.51
iter:  36 18:22:50 -7847.354940c -4.01  -2.59
iter:  37 18:25:23 -7847.156667c -4.57  -2.37
iter:  38 18:27:58 -7847.157888c -4.87  -2.53
iter:  39 18:30:33 -7847.114338c -4.75  -2.57
iter:  40 18:33:06 -7847.014969c -4.27  -2.63
iter:  41 18:35:40 -7846.997357c -3.88  -2.62
iter:  42 18:38:14 -7846.897301c -4.74  -2.56
iter:  43 18:40:48 -7846.858070c -5.17  -2.90
iter:  44 18:43:22 -7846.818394c -4.55  -3.13
iter:  45 18:45:56 -7846.878058c -5.07  -2.92
iter:  46 18:48:30 -7846.882378c -4.79  -2.80
iter:  47 18:51:05 -7846.851434c -5.44  -3.10
iter:  48 18:53:41 -7846.843646c -5.64  -3.35
iter:  49 18:56:17 -7846.843961c -5.29  -3.20
iter:  50 18:58:53 -7846.841351c -6.05  -3.22
iter:  51 19:01:29 -7846.837268c -5.94  -3.42
iter:  52 19:04:04 -7846.835886c -6.32  -3.59
iter:  53 19:06:40 -7846.838499c -6.62  -3.84
iter:  54 19:09:16 -7846.837335c -7.54c -3.96
iter:  55 19:11:52 -7846.839036c -7.00  -3.98
iter:  56 19:14:29 -7846.837713c -6.97  -4.19c
iter:  57 19:17:06 -7846.838406c -7.83c -4.19c

Converged after 57 iterations.

Dipole moment: (56.053963, -0.000000, -0.001498) |e|*Ang

Energy contributions relative to reference atoms: (reference = -4522938.567079)

Kinetic:       +743.413821
Potential:     -822.001153
External:        +0.000000
XC:            -7766.001936
Entropy (-ST):   -1.518547
Local:           -1.489865
--------------------------
Free energy:   -7847.597679
Extrapolated:  -7846.838406

Showing only first 2 kpts
 Kpt  Band  Eigenvalues  Occupancy
  0   582     -0.67533    1.68569
  0   583     -0.61896    1.50643
  0   584     -0.58544    1.37164
  0   585     -0.58363    1.36379

  1   582     -0.58929    1.38810
  1   583     -0.55184    1.21872
  1   584     -0.44132    0.68123
  1   585     -0.37075    0.40645


Fermi level: -0.50738

No gap

Forces in eV/Ang:
  0 Cu    0.14494    0.00000   -1.95598
  1 Cu   -0.11589   -0.00000   -0.65027
  2 Cu   -0.11589    0.00000   -0.65027
  3 Cu    0.14494    0.00000   -1.95598
  4 Cu   -0.15054    0.00000   -0.12104
  5 Cu   -0.09749    0.00000   -0.09351
  6 Cu   -0.09749    0.00000   -0.09350
  7 Cu   -0.15053    0.00000   -0.12105
  8 Cu    0.01260    0.00000   -0.17703
  9 Cu    0.00613   -0.00000   -0.08207
 10 Cu    0.00613    0.00000   -0.08206
 11 Cu    0.01261    0.00000   -0.17702
 12 Cu   -0.01557    0.00000   -0.12009
 13 Cu   -0.00288    0.00000    0.07072
 14 Cu   -0.00288    0.00000    0.07071
 15 Cu   -0.01557    0.00000   -0.12009
 16 Cu    0.04113    0.00000    0.03794
 17 Cu   -0.01731   -0.00000   -0.01315
 18 Cu   -0.01731   -0.00000   -0.01315
 19 Cu    0.04112    0.00000    0.03794
 20 Cu    0.01256    0.00000   -0.02405
 21 Cu    0.00246   -0.00000    0.03960
 22 Cu    0.00246    0.00000    0.03960
 23 Cu    0.01256    0.00000   -0.02405
 24 Cu   -0.00157    0.00000   -0.03780
 25 Cu   -0.01249   -0.00000    0.02500
 26 Cu   -0.01249   -0.00000    0.02499
 27 Cu   -0.00157    0.00000   -0.03781
 28 Cu    0.01746    0.00000    0.01385
 29 Cu   -0.04115   -0.00000   -0.03449
 30 Cu   -0.04115   -0.00000   -0.03449
 31 Cu    0.01746    0.00000    0.01384
 32 Cu    0.00350    0.00000   -0.06756
 33 Cu    0.01512   -0.00000    0.11990
 34 Cu    0.01512   -0.00000    0.11989
 35 Cu    0.00349    0.00000   -0.06757
 36 Cu   -0.00598    0.00000    0.08314
 37 Cu   -0.01328    0.00000    0.17889
 38 Cu   -0.01328    0.00000    0.17888
 39 Cu   -0.00598    0.00000    0.08313
 40 Cu    0.09824    0.00000    0.09564
 41 Cu    0.15121    0.00000    0.12151
 42 Cu    0.15120    0.00000    0.12151
 43 Cu    0.09824    0.00000    0.09564
 44 Cu    0.11599    0.00000    0.64942
 45 Cu   -0.14426    0.00000    1.95202
 46 Cu   -0.14426    0.00000    1.95202
 47 Cu    0.11599    0.00000    0.64943
 48 Cu    0.14495    0.00000   -1.95598
 49 Cu   -0.11589    0.00000   -0.65027
 50 Cu   -0.11589   -0.00000   -0.65027
 51 Cu    0.14494    0.00000   -1.95598
 52 Cu   -0.15054    0.00000   -0.12104
 53 Cu   -0.09749   -0.00000   -0.09351
 54 Cu   -0.09749   -0.00000   -0.09350
 55 Cu   -0.15053    0.00000   -0.12105
 56 Cu    0.01260    0.00000   -0.17703
 57 Cu    0.00613    0.00000   -0.08207
 58 Cu    0.00613   -0.00000   -0.08206
 59 Cu    0.01261    0.00000   -0.17702
 60 Cu   -0.01557    0.00000   -0.12009
 61 Cu   -0.00288   -0.00000    0.07072
 62 Cu   -0.00288   -0.00000    0.07071
 63 Cu   -0.01557    0.00000   -0.12009
 64 Cu    0.04113    0.00000    0.03794
 65 Cu   -0.01731    0.00000   -0.01315
 66 Cu   -0.01731    0.00000   -0.01315
 67 Cu    0.04113    0.00000    0.03794
 68 Cu    0.01256    0.00000   -0.02405
 69 Cu    0.00246    0.00000    0.03960
 70 Cu    0.00246   -0.00000    0.03960
 71 Cu    0.01256    0.00000   -0.02405
 72 Cu   -0.00157    0.00000   -0.03780
 73 Cu   -0.01249    0.00000    0.02500
 74 Cu   -0.01249    0.00000    0.02499
 75 Cu   -0.00157    0.00000   -0.03781
 76 Cu    0.01746    0.00000    0.01385
 77 Cu   -0.04115    0.00000   -0.03449
 78 Cu   -0.04115    0.00000   -0.03449
 79 Cu    0.01745    0.00000    0.01384
 80 Cu    0.00350    0.00000   -0.06756
 81 Cu    0.01512    0.00000    0.11990
 82 Cu    0.01512    0.00000    0.11989
 83 Cu    0.00349    0.00000   -0.06757
 84 Cu   -0.00598    0.00000    0.08314
 85 Cu   -0.01328   -0.00000    0.17889
 86 Cu   -0.01328   -0.00000    0.17888
 87 Cu   -0.00598    0.00000    0.08314
 88 Cu    0.09824    0.00000    0.09564
 89 Cu    0.15121   -0.00000    0.12151
 90 Cu    0.15120   -0.00000    0.12151
 91 Cu    0.09824    0.00000    0.09565
 92 Cu    0.11599    0.00000    0.64943
 93 Cu   -0.14426   -0.00000    1.95202
 94 Cu   -0.14426   -0.00000    1.95202
 95 Cu    0.11599    0.00000    0.64943
 96 Cl    0.40125    0.00000   -1.56722
 97 Cl   -0.53713    0.00000   -1.50555
 98 Cl    0.40126    0.00000   -1.56723
 99 Cl    0.40126    0.00000   -1.56723
100 Cl   -0.53713   -0.00000   -1.50555
101 Cl    0.40125    0.00000   -1.56722
102 Cl   -0.53714   -0.00000   -1.50555
103 Cl   -0.53714    0.00000   -1.50555
104 Cl    0.54035    0.00000    1.51075
105 Cl    0.54035    0.00000    1.51075
106 Cl   -0.40252    0.00000    1.57158
107 Cl   -0.40252   -0.00000    1.57158
108 Cl    0.54035    0.00000    1.51074
109 Cl    0.54035    0.00000    1.51075
110 Cl   -0.40251   -0.00000    1.57158
111 Cl   -0.40251    0.00000    1.57158

System changes: positions 

Initializing position-dependent things.

Density initialized from wave functions
      .----------------------------.  
     /|                            |  
    / |                            |  
   /  |                            |  
  /   |                            |  
 *    |                            |  
 |    |                            |  
 |    |                            |  
 |    |                            |  
 |    |                            |  
 |    |                            |  
 |    |           Cl             Cl|  
 |    |                            |  
 |    |  Cl             Cl         |  
 |    |       CuCl           CCl   |  
 |    | Cu       Cu    Cu       Cu |  
 |    |Cl   Cu   Cu  Cl   Cu    Cu |  
 |    Cu   Cu       Cu    Cu       |  
 |    Cu   Cu  Cu   Cu    Cu Cu    |  
 |   Cu  Cu    Cu   Cu Cu    Cu    |  
 |    |  Cu   Cu       Cu    Cu    |  
 | Cu | Cu    Cu  Cu   Cu    Cu    |  
 | Cu | Cu  Cu   Cu    Cu Cu       |  
 |    |     Cu   Cu       Cu    Cu |  
 |    Cu   Cu    Cu Cu    Cu    Cu |  
 |    Cu   Cu  Cu   Cu    Cu Cu    |  
 |   Cu        Cu   Cu       Cu    |  
 |    |  Cu   Cu       Cu    Cu    |  
 | Cu | Cu    Cu  Cu   Cu    Cu    |  
 | Cu | Cu  Cu   Cu    Cu Cu       |  
 |    |     Cu   Cu       Cu    Cu |  
 |    Cu   Cu   Cl  Cu    Cu   Cl  |  
 |    Cu       Cu   Cu       Cu    |  
 |    |Cl             Cl           |  
 |    |  Cu   Cl       Cu   Cl     |  
 |    |                            |  
 |   Cl            Cl              |  
 |    |                            |  
 |    |                            |  
 |    |                            |  
 |    |                            |  
 |    .----------------------------.  
 |   /                            /   
 |  /                            /    
 | /                            /     
 |/                            /      
 *----------------------------*       

Positions:
   0 Cu     3.212025    0.000000   10.023117    ( 0.0000,  0.0000,  0.0000)
   1 Cu     1.433228    1.850500   10.459231    ( 0.0000,  0.0000,  0.0000)
   2 Cu     7.285023    1.850500   10.459231    ( 0.0000,  0.0000,  0.0000)
   3 Cu     9.063819    0.000000   10.023117    ( 0.0000,  0.0000,  0.0000)
   4 Cu    11.443784    0.000000   11.054511    ( 0.0000,  0.0000,  0.0000)
   5 Cu     9.686485    1.850500   11.787654    ( 0.0000,  0.0000,  0.0000)
   6 Cu     3.834690    1.850500   11.787655    ( 0.0000,  0.0000,  0.0000)
   7 Cu     5.591990    0.000000   11.054510    ( 0.0000,  0.0000,  0.0000)
   8 Cu     7.863678    0.000000   12.376839    ( 0.0000,  0.0000,  0.0000)
   9 Cu     6.146745    1.850500   12.903913    ( 0.0000,  0.0000,  0.0000)
  10 Cu     0.294950    1.850500   12.903914    ( 0.0000,  0.0000,  0.0000)
  11 Cu     2.011884    0.000000   12.376840    ( 0.0000,  0.0000,  0.0000)
  12 Cu     4.395987    0.000000   13.487523    ( 0.0000,  0.0000,  0.0000)
  13 Cu     2.622765    1.850500   14.111655    ( 0.0000,  0.0000,  0.0000)
  14 Cu     8.474559    1.850500   14.111654    ( 0.0000,  0.0000,  0.0000)
  15 Cu    10.247782    0.000000   13.487523    ( 0.0000,  0.0000,  0.0000)
  16 Cu     0.851661    0.000000   14.703383    ( 0.0000,  0.0000,  0.0000)
  17 Cu    10.803740    1.850500   15.267735    ( 0.0000,  0.0000,  0.0000)
  18 Cu     4.951945    1.850500   15.267735    ( 0.0000,  0.0000,  0.0000)
  19 Cu     6.703455    0.000000   14.703382    ( 0.0000,  0.0000,  0.0000)
  20 Cu     9.048750    0.000000   15.842768    ( 0.0000,  0.0000,  0.0000)
  21 Cu     7.289950    1.850500   16.436120    ( 0.0000,  0.0000,  0.0000)
  22 Cu     1.438155    1.850500   16.436120    ( 0.0000,  0.0000,  0.0000)
  23 Cu     3.196955    0.000000   15.842768    ( 0.0000,  0.0000,  0.0000)
  24 Cu     5.519018    0.000000   17.023481    ( 0.0000,  0.0000,  0.0000)
  25 Cu     3.760156    1.850500   17.616856    ( 0.0000,  0.0000,  0.0000)
  26 Cu     9.611951    1.850500   17.616856    ( 0.0000,  0.0000,  0.0000)
  27 Cu    11.370813    0.000000   17.023481    ( 0.0000,  0.0000,  0.0000)
  28 Cu     2.005177    0.000000   18.191783    ( 0.0000,  0.0000,  0.0000)
  29 Cu     0.253614    1.850500   18.756282    ( 0.0000,  0.0000,  0.0000)
  30 Cu     6.105409    1.850500   18.756282    ( 0.0000,  0.0000,  0.0000)
  31 Cu     7.856972    0.000000   18.191782    ( 0.0000,  0.0000,  0.0000)
  32 Cu    10.186046    0.000000   19.348088    ( 0.0000,  0.0000,  0.0000)
  33 Cu     8.412676    1.850500   19.971936    ( 0.0000,  0.0000,  0.0000)
  34 Cu     2.560882    1.850500   19.971935    ( 0.0000,  0.0000,  0.0000)
  35 Cu     4.334251    0.000000   19.348087    ( 0.0000,  0.0000,  0.0000)
  36 Cu     6.661994    0.000000   20.555529    ( 0.0000,  0.0000,  0.0000)
  37 Cu     4.945235    1.850500   21.082679    ( 0.0000,  0.0000,  0.0000)
  38 Cu    10.797029    1.850500   21.082679    ( 0.0000,  0.0000,  0.0000)
  39 Cu     0.810199    0.000000   20.555529    ( 0.0000,  0.0000,  0.0000)
  40 Cu     3.122398    0.000000   21.671949    ( 0.0000,  0.0000,  0.0000)
  41 Cu     1.365200    1.850500   22.404927    ( 0.0000,  0.0000,  0.0000)
  42 Cu     7.216994    1.850500   22.404928    ( 0.0000,  0.0000,  0.0000)
  43 Cu     8.974192    0.000000   21.671950    ( 0.0000,  0.0000,  0.0000)
  44 Cu    11.375774    0.000000   23.000059    ( 0.0000,  0.0000,  0.0000)
  45 Cu     9.597163    1.850500   23.435769    ( 0.0000,  0.0000,  0.0000)
  46 Cu     3.745368    1.850500   23.435769    ( 0.0000,  0.0000,  0.0000)
  47 Cu     5.523979    0.000000   23.000060    ( 0.0000,  0.0000,  0.0000)
  48 Cu     3.212025    3.701000   10.023117    ( 0.0000,  0.0000,  0.0000)
  49 Cu     1.433228    5.551500   10.459231    ( 0.0000,  0.0000,  0.0000)
  50 Cu     7.285023    5.551500   10.459231    ( 0.0000,  0.0000,  0.0000)
  51 Cu     9.063819    3.701000   10.023116    ( 0.0000,  0.0000,  0.0000)
  52 Cu    11.443784    3.701000   11.054511    ( 0.0000,  0.0000,  0.0000)
  53 Cu     9.686485    5.551500   11.787654    ( 0.0000,  0.0000,  0.0000)
  54 Cu     3.834690    5.551500   11.787655    ( 0.0000,  0.0000,  0.0000)
  55 Cu     5.591990    3.701000   11.054510    ( 0.0000,  0.0000,  0.0000)
  56 Cu     7.863678    3.701000   12.376839    ( 0.0000,  0.0000,  0.0000)
  57 Cu     6.146745    5.551500   12.903913    ( 0.0000,  0.0000,  0.0000)
  58 Cu     0.294950    5.551500   12.903914    ( 0.0000,  0.0000,  0.0000)
  59 Cu     2.011884    3.701000   12.376840    ( 0.0000,  0.0000,  0.0000)
  60 Cu     4.395987    3.701000   13.487523    ( 0.0000,  0.0000,  0.0000)
  61 Cu     2.622765    5.551500   14.111655    ( 0.0000,  0.0000,  0.0000)
  62 Cu     8.474559    5.551500   14.111654    ( 0.0000,  0.0000,  0.0000)
  63 Cu    10.247782    3.701000   13.487523    ( 0.0000,  0.0000,  0.0000)
  64 Cu     0.851661    3.701000   14.703383    ( 0.0000,  0.0000,  0.0000)
  65 Cu    10.803740    5.551500   15.267735    ( 0.0000,  0.0000,  0.0000)
  66 Cu     4.951945    5.551500   15.267735    ( 0.0000,  0.0000,  0.0000)
  67 Cu     6.703456    3.701000   14.703382    ( 0.0000,  0.0000,  0.0000)
  68 Cu     9.048750    3.701000   15.842768    ( 0.0000,  0.0000,  0.0000)
  69 Cu     7.289950    5.551500   16.436120    ( 0.0000,  0.0000,  0.0000)
  70 Cu     1.438155    5.551500   16.436120    ( 0.0000,  0.0000,  0.0000)
  71 Cu     3.196955    3.701000   15.842768    ( 0.0000,  0.0000,  0.0000)
  72 Cu     5.519018    3.701000   17.023481    ( 0.0000,  0.0000,  0.0000)
  73 Cu     3.760156    5.551500   17.616856    ( 0.0000,  0.0000,  0.0000)
  74 Cu     9.611951    5.551500   17.616856    ( 0.0000,  0.0000,  0.0000)
  75 Cu    11.370813    3.701000   17.023481    ( 0.0000,  0.0000,  0.0000)
  76 Cu     2.005177    3.701000   18.191783    ( 0.0000,  0.0000,  0.0000)
  77 Cu     0.253614    5.551500   18.756282    ( 0.0000,  0.0000,  0.0000)
  78 Cu     6.105409    5.551500   18.756282    ( 0.0000,  0.0000,  0.0000)
  79 Cu     7.856971    3.701000   18.191782    ( 0.0000,  0.0000,  0.0000)
  80 Cu    10.186046    3.701000   19.348088    ( 0.0000,  0.0000,  0.0000)
  81 Cu     8.412676    5.551500   19.971936    ( 0.0000,  0.0000,  0.0000)
  82 Cu     2.560882    5.551500   19.971935    ( 0.0000,  0.0000,  0.0000)
  83 Cu     4.334251    3.701000   19.348087    ( 0.0000,  0.0000,  0.0000)
  84 Cu     6.661994    3.701000   20.555529    ( 0.0000,  0.0000,  0.0000)
  85 Cu     4.945235    5.551500   21.082679    ( 0.0000,  0.0000,  0.0000)
  86 Cu    10.797029    5.551500   21.082679    ( 0.0000,  0.0000,  0.0000)
  87 Cu     0.810199    3.701000   20.555529    ( 0.0000,  0.0000,  0.0000)
  88 Cu     3.122398    3.701000   21.671949    ( 0.0000,  0.0000,  0.0000)
  89 Cu     1.365200    5.551500   22.404927    ( 0.0000,  0.0000,  0.0000)
  90 Cu     7.216994    5.551500   22.404928    ( 0.0000,  0.0000,  0.0000)
  91 Cu     8.974192    3.701000   21.671950    ( 0.0000,  0.0000,  0.0000)
  92 Cu    11.375774    3.701000   23.000060    ( 0.0000,  0.0000,  0.0000)
  93 Cu     9.597163    5.551500   23.435769    ( 0.0000,  0.0000,  0.0000)
  94 Cu     3.745368    5.551500   23.435769    ( 0.0000,  0.0000,  0.0000)
  95 Cu     5.523979    3.701000   23.000060    ( 0.0000,  0.0000,  0.0000)
  96 Cl     8.196072    3.701000   24.646432    ( 0.0000,  0.0000,  0.0000)
  97 Cl     5.377344    5.551500   25.267772    ( 0.0000,  0.0000,  0.0000)
  98 Cl     2.344278    3.701000   24.646431    ( 0.0000,  0.0000,  0.0000)
  99 Cl     2.344277    0.000000   24.646431    ( 0.0000,  0.0000,  0.0000)
 100 Cl     5.377344    1.850500   25.267772    ( 0.0000,  0.0000,  0.0000)
 101 Cl     8.196072    0.000000   24.646434    ( 0.0000,  0.0000,  0.0000)
 102 Cl    11.229138    5.551499   25.267772    ( 0.0000,  0.0000,  0.0000)
 103 Cl    11.229138    1.850501   25.267772    ( 0.0000,  0.0000,  0.0000)
 104 Cl     7.431748    3.701000    8.191921    ( 0.0000,  0.0000,  0.0000)
 105 Cl     7.431748    0.000000    8.191922    ( 0.0000,  0.0000,  0.0000)
 106 Cl     4.612564    1.850500    8.813016    ( 0.0000,  0.0000,  0.0000)
 107 Cl     4.612564    5.551500    8.813016    ( 0.0000,  0.0000,  0.0000)
 108 Cl     1.579954    0.000000    8.191921    ( 0.0000,  0.0000,  0.0000)
 109 Cl     1.579954    3.701000    8.191922    ( 0.0000,  0.0000,  0.0000)
 110 Cl    -1.239230    1.850500    8.813016    ( 0.0000,  0.0000,  0.0000)
 111 Cl    -1.239230    5.551500    8.813016    ( 0.0000,  0.0000,  0.0000)

Unit cell:
           periodic     x           y           z      points  spacing
  1. axis:    yes   11.703590    0.000000    0.000000    70     0.1672
  2. axis:    yes    0.000000    7.402000    0.000000    42     0.1762
  3. axis:    no     0.000000    0.000000   33.459128   192     0.1743

  Lengths:  11.703590   7.402000  33.459128
  Angles:   90.000000  90.000000  90.000000

Effective grid spacing dv^(1/3) = 0.1725

     iter     time        total  log10-change:
                         energy  eigst   dens
iter:   1 19:21:16 -8085.079831  -0.87
iter:   2 19:23:52 -8298.166085  +0.71  -0.99
iter:   3 19:26:29 -8111.478124  +0.66  -0.92
iter:   4 19:29:05 -8424.787181  +0.18  -1.13
iter:   5 19:31:39 -7902.550761  -1.10  -0.90
iter:   6 19:34:15 -7889.621140  -1.87  -1.69
iter:   7 19:36:50 -7893.836435  -2.75  -1.67
iter:   8 19:39:24 -7866.880287  -1.63  -1.66
iter:   9 19:41:59 -7862.727956  -2.26  -1.80
iter:  10 19:44:35 -7864.748799  -2.36  -1.85
iter:  11 19:47:10 -7870.326041  -2.54  -1.81
iter:  12 19:49:45 -7872.777801  -2.85  -1.79
iter:  13 19:52:19 -7872.053757  -1.70  -1.76
iter:  14 19:54:54 -7863.833860  -1.97  -1.79
iter:  15 19:57:29 -7863.458396  -3.12  -1.87
iter:  16 20:00:03 -7857.931393  -2.24  -1.89
iter:  17 20:02:38 -7856.039992  -2.43  -2.07
iter:  18 20:05:12 -7855.870177  -2.78  -2.29
iter:  19 20:07:46 -7855.902445c -3.45  -2.16
iter:  20 20:10:22 -7855.570064c -3.66  -2.15
iter:  21 20:12:57 -7854.964709  -3.17  -2.18
iter:  22 20:15:31 -7854.376423  -2.78  -2.39
iter:  23 20:18:06 -7854.189271  -3.64  -2.41
iter:  24 20:20:39 -7854.034834c -4.00  -2.59
iter:  25 20:23:14 -7854.008078c -4.44  -2.71
iter:  26 20:25:49 -7854.013009c -3.53  -2.79
iter:  27 20:28:23 -7853.972390c -4.31  -3.00
iter:  28 20:30:57 -7853.954565c -4.49  -3.05
iter:  29 20:33:32 -7853.944952c -5.09  -3.12
iter:  30 20:36:06 -7853.932014c -4.32  -3.24
iter:  31 20:38:40 -7853.956136c -4.65  -3.36
iter:  32 20:41:15 -7853.940086c -5.88  -3.07
iter:  33 20:43:50 -7853.932050c -5.63  -3.23
iter:  34 20:46:26 -7853.940279c -6.00  -3.33
iter:  35 20:49:01 -7853.929875c -4.86  -3.24
iter:  36 20:51:35 -7853.928978c -6.22  -3.49
iter:  37 20:54:10 -7853.929141c -6.76  -3.65
iter:  38 20:56:45 -7853.930196c -5.60  -3.74
iter:  39 20:59:20 -7853.928996c -6.98  -4.05c
iter:  40 21:01:56 -7853.929825c -6.72  -4.13c
iter:  41 21:04:31 -7853.929252c -7.03  -4.15c
iter:  42 21:07:07 -7853.928913c -7.14  -4.22c
iter:  43 21:09:42 -7853.928752c -6.81  -4.21c
iter:  44 21:12:16 -7853.929099c -7.92c -4.42c

Converged after 44 iterations.

Dipole moment: (52.322984, -0.000000, -0.005393) |e|*Ang

Energy contributions relative to reference atoms: (reference = -4522938.567079)

Kinetic:       +750.747692
Potential:     -829.482872
External:        +0.000000
XC:            -7773.199230
Entropy (-ST):   -1.105105
Local:           -1.442137
--------------------------
Free energy:   -7854.481651
Extrapolated:  -7853.929099

Showing only first 2 kpts
 Kpt  Band  Eigenvalues  Occupancy
  0   582     -0.58702    1.88235
  0   583     -0.47547    1.67968
  0   584     -0.47445    1.67694
  0   585     -0.35884    1.24058

  1   582     -0.29820    0.94223
  1   583     -0.28845    0.89386
  1   584     -0.18927    0.46120
  1   585     -0.11387    0.24716


Fermi level: -0.30976

No gap

Forces in eV/Ang:
  0 Cu   -0.00468    0.00000   -1.08018
  1 Cu   -0.01778    0.00000   -0.54572
  2 Cu   -0.01779   -0.00000   -0.54572
  3 Cu   -0.00467    0.00000   -1.08018
  4 Cu   -0.15341    0.00000   -0.02348
  5 Cu   -0.21340   -0.00000   -0.28237
  6 Cu   -0.21341   -0.00000   -0.28238
  7 Cu   -0.15341    0.00000   -0.02347
  8 Cu    0.09784    0.00000   -0.42130
  9 Cu    0.03473    0.00000   -0.13162
 10 Cu    0.03473    0.00000   -0.13162
 11 Cu    0.09783    0.00000   -0.42131
 12 Cu   -0.00952    0.00000   -0.09822
 13 Cu   -0.00775   -0.00000   -0.04254
 14 Cu   -0.00775   -0.00000   -0.04254
 15 Cu   -0.00952    0.00000   -0.09822
 16 Cu    0.00788    0.00000   -0.02083
 17 Cu    0.00908    0.00000   -0.02587
 18 Cu    0.00908    0.00000   -0.02588
 19 Cu    0.00788    0.00000   -0.02083
 20 Cu    0.01648    0.00000   -0.00276
 21 Cu    0.00597    0.00000    0.02356
 22 Cu    0.00597   -0.00000    0.02356
 23 Cu    0.01647    0.00000   -0.00276
 24 Cu   -0.00580    0.00000   -0.01849
 25 Cu   -0.01568    0.00000    0.00729
 26 Cu   -0.01568    0.00000    0.00729
 27 Cu   -0.00580    0.00000   -0.01849
 28 Cu   -0.00843    0.00000    0.02963
 29 Cu   -0.00784   -0.00000    0.02076
 30 Cu   -0.00784   -0.00000    0.02076
 31 Cu   -0.00843    0.00000    0.02963
 32 Cu    0.00653    0.00000    0.03810
 33 Cu    0.00945    0.00000    0.09422
 34 Cu    0.00945    0.00000    0.09422
 35 Cu    0.00653    0.00000    0.03810
 36 Cu   -0.03352    0.00000    0.12640
 37 Cu   -0.09923   -0.00000    0.41457
 38 Cu   -0.09923   -0.00000    0.41457
 39 Cu   -0.03352    0.00000    0.12640
 40 Cu    0.21191    0.00000    0.27342
 41 Cu    0.15638    0.00000    0.01840
 42 Cu    0.15638   -0.00000    0.01840
 43 Cu    0.21192    0.00000    0.27342
 44 Cu    0.01935    0.00000    0.54454
 45 Cu    0.00255   -0.00000    1.08778
 46 Cu    0.00255   -0.00000    1.08778
 47 Cu    0.01935    0.00000    0.54454
 48 Cu   -0.00468    0.00000   -1.08018
 49 Cu   -0.01778   -0.00000   -0.54572
 50 Cu   -0.01779    0.00000   -0.54572
 51 Cu   -0.00467    0.00000   -1.08018
 52 Cu   -0.15341    0.00000   -0.02348
 53 Cu   -0.21340    0.00000   -0.28237
 54 Cu   -0.21341    0.00000   -0.28238
 55 Cu   -0.15341    0.00000   -0.02347
 56 Cu    0.09784    0.00000   -0.42130
 57 Cu    0.03473   -0.00000   -0.13162
 58 Cu    0.03473   -0.00000   -0.13162
 59 Cu    0.09783    0.00000   -0.42131
 60 Cu   -0.00951    0.00000   -0.09822
 61 Cu   -0.00775    0.00000   -0.04254
 62 Cu   -0.00775    0.00000   -0.04254
 63 Cu   -0.00952    0.00000   -0.09822
 64 Cu    0.00788    0.00000   -0.02083
 65 Cu    0.00908   -0.00000   -0.02587
 66 Cu    0.00908   -0.00000   -0.02588
 67 Cu    0.00788    0.00000   -0.02083
 68 Cu    0.01648    0.00000   -0.00276
 69 Cu    0.00597   -0.00000    0.02356
 70 Cu    0.00597    0.00000    0.02356
 71 Cu    0.01648    0.00000   -0.00276
 72 Cu   -0.00580    0.00000   -0.01849
 73 Cu   -0.01568   -0.00000    0.00729
 74 Cu   -0.01568   -0.00000    0.00729
 75 Cu   -0.00580    0.00000   -0.01849
 76 Cu   -0.00843    0.00000    0.02963
 77 Cu   -0.00784    0.00000    0.02076
 78 Cu   -0.00784    0.00000    0.02076
 79 Cu   -0.00843    0.00000    0.02963
 80 Cu    0.00653    0.00000    0.03809
 81 Cu    0.00945   -0.00000    0.09422
 82 Cu    0.00945   -0.00000    0.09422
 83 Cu    0.00653    0.00000    0.03810
 84 Cu   -0.03352    0.00000    0.12640
 85 Cu   -0.09923    0.00000    0.41457
 86 Cu   -0.09923    0.00000    0.41457
 87 Cu   -0.03352    0.00000    0.12641
 88 Cu    0.21191    0.00000    0.27342
 89 Cu    0.15638   -0.00000    0.01840
 90 Cu    0.15638    0.00000    0.01840
 91 Cu    0.21192    0.00000    0.27342
 92 Cu    0.01935    0.00000    0.54454
 93 Cu    0.00255    0.00000    1.08778
 94 Cu    0.00255    0.00000    1.08778
 95 Cu    0.01935    0.00000    0.54454
 96 Cl    0.16661    0.00000   -1.19711
 97 Cl   -0.35627   -0.00000   -1.43574
 98 Cl    0.16660    0.00000   -1.19711
 99 Cl    0.16661    0.00000   -1.19711
100 Cl   -0.35627    0.00000   -1.43574
101 Cl    0.16661    0.00000   -1.19711
102 Cl   -0.35626    0.00000   -1.43574
103 Cl   -0.35626   -0.00000   -1.43574
104 Cl    0.35644    0.00000    1.44431
105 Cl    0.35644    0.00000    1.44431
106 Cl   -0.16770   -0.00000    1.20312
107 Cl   -0.16770    0.00000    1.20312
108 Cl    0.35644    0.00000    1.44432
109 Cl    0.35644    0.00000    1.44431
110 Cl   -0.16769   -0.00000    1.20312
111 Cl   -0.16769    0.00000    1.20312

System changes: positions 

Initializing position-dependent things.

Density initialized from wave functions
      .----------------------------.  
     /|                            |  
    / |                            |  
   /  |                            |  
  /   |                            |  
 *    |                            |  
 |    |                            |  
 |    |                            |  
 |    |                            |  
 |    |                            |  
 |    |                            |  
 |    |           Cl            Cl |  
 |    |                            |  
 |    |  Cl   Cu        Cl  Cu     |  
 |    |        Cl             Cl   |  
 |    | Cu       Cu    Cu       Cu |  
 |    |Cl  Cu    Cu  Cl   Cu    Cu |  
 |    Cu   Cu       Cu    Cu       |  
 |    Cu   Cu  Cu   Cu    Cu Cu    |  
 |   Cu  Cu    Cu   Cu Cu    Cu    |  
 |    |  Cu   Cu       Cu    Cu    |  
 | Cu | Cu    Cu  Cu   Cu    Cu    |  
 | Cu | Cu  Cu   Cu    Cu Cu       |  
 |    |     Cu   Cu       Cu    Cu |  
 |    Cu   Cu    Cu Cu    Cu    Cu |  
 |    Cu   Cu  Cu   Cu    Cu Cu    |  
 |   Cu        Cu   Cu       Cu    |  
 |    |  Cu   Cu       Cu    Cu    |  
 | Cu | Cu    Cu  Cu   Cu    Cu    |  
 | Cu |     Cu   Cu       Cu       |  
 |    | Cu  Cu   Cu    Cu Cu    Cu |  
 |    Cu   Cu   Cl  Cu    Cu   Cl  |  
 |    Cu       Cu   Cu       Cu    |  
 |    | Cl            Cl           |  
 |    |  Cu   Cl       Cu   Cl     |  
 |    |                            |  
 |   Cl             Cl             |  
 |    |                            |  
 |    |                            |  
 |    |                            |  
 |    |                            |  
 |    .----------------------------.  
 |   /                            /   
 |  /                            /    
 | /                            /     
 |/                            /      
 *----------------------------*       

Positions:
   0 Cu     3.226805    0.000000    9.823664    ( 0.0000,  0.0000,  0.0000)
   1 Cu     1.421411    1.850500   10.392923    ( 0.0000,  0.0000,  0.0000)
   2 Cu     7.273206    1.850500   10.392923    ( 0.0000,  0.0000,  0.0000)
   3 Cu     9.078599    0.000000    9.823664    ( 0.0000,  0.0000,  0.0000)
   4 Cu    11.428434    0.000000   11.042168    ( 0.0000,  0.0000,  0.0000)
   5 Cu     9.676543    1.850500   11.778120    ( 0.0000,  0.0000,  0.0000)
   6 Cu     3.824750    1.850500   11.778120    ( 0.0000,  0.0000,  0.0000)
   7 Cu     5.576640    0.000000   11.042167    ( 0.0000,  0.0000,  0.0000)
   8 Cu     7.864963    0.000000   12.358788    ( 0.0000,  0.0000,  0.0000)
   9 Cu     6.147371    1.850500   12.895545    ( 0.0000,  0.0000,  0.0000)
  10 Cu     0.295576    1.850500   12.895546    ( 0.0000,  0.0000,  0.0000)
  11 Cu     2.013169    0.000000   12.358789    ( 0.0000,  0.0000,  0.0000)
  12 Cu     4.394400    0.000000   13.475277    ( 0.0000,  0.0000,  0.0000)
  13 Cu     2.622470    1.850500   14.118866    ( 0.0000,  0.0000,  0.0000)
  14 Cu     8.474266    1.850500   14.118865    ( 0.0000,  0.0000,  0.0000)
  15 Cu    10.246195    0.000000   13.475277    ( 0.0000,  0.0000,  0.0000)
  16 Cu     0.855854    0.000000   14.707252    ( 0.0000,  0.0000,  0.0000)
  17 Cu    10.801975    1.850500   15.266395    ( 0.0000,  0.0000,  0.0000)
  18 Cu     4.950179    1.850500   15.266394    ( 0.0000,  0.0000,  0.0000)
  19 Cu     6.707649    0.000000   14.707252    ( 0.0000,  0.0000,  0.0000)
  20 Cu     9.050031    0.000000   15.840316    ( 0.0000,  0.0000,  0.0000)
  21 Cu     7.290201    1.850500   16.440159    ( 0.0000,  0.0000,  0.0000)
  22 Cu     1.438405    1.850500   16.440159    ( 0.0000,  0.0000,  0.0000)
  23 Cu     3.198236    0.000000   15.840316    ( 0.0000,  0.0000,  0.0000)
  24 Cu     5.518858    0.000000   17.019626    ( 0.0000,  0.0000,  0.0000)
  25 Cu     3.758882    1.850500   17.619405    ( 0.0000,  0.0000,  0.0000)
  26 Cu     9.610677    1.850500   17.619405    ( 0.0000,  0.0000,  0.0000)
  27 Cu    11.370654    0.000000   17.019626    ( 0.0000,  0.0000,  0.0000)
  28 Cu     2.006957    0.000000   18.193195    ( 0.0000,  0.0000,  0.0000)
  29 Cu     0.249418    1.850500   18.752766    ( 0.0000,  0.0000,  0.0000)
  30 Cu     6.101212    1.850500   18.752765    ( 0.0000,  0.0000,  0.0000)
  31 Cu     7.858752    0.000000   18.193194    ( 0.0000,  0.0000,  0.0000)
  32 Cu    10.186402    0.000000   19.341198    ( 0.0000,  0.0000,  0.0000)
  33 Cu     8.414218    1.850500   19.984161    ( 0.0000,  0.0000,  0.0000)
  34 Cu     2.562423    1.850500   19.984161    ( 0.0000,  0.0000,  0.0000)
  35 Cu     4.334607    0.000000   19.341197    ( 0.0000,  0.0000,  0.0000)
  36 Cu     6.661385    0.000000   20.564006    ( 0.0000,  0.0000,  0.0000)
  37 Cu     4.943880    1.850500   21.100920    ( 0.0000,  0.0000,  0.0000)
  38 Cu    10.795675    1.850500   21.100919    ( 0.0000,  0.0000,  0.0000)
  39 Cu     0.809590    0.000000   20.564006    ( 0.0000,  0.0000,  0.0000)
  40 Cu     3.132416    0.000000   21.681702    ( 0.0000,  0.0000,  0.0000)
  41 Cu     1.380619    1.850500   22.417317    ( 0.0000,  0.0000,  0.0000)
  42 Cu     7.232413    1.850500   22.417318    ( 0.0000,  0.0000,  0.0000)
  43 Cu     8.984210    0.000000   21.681703    ( 0.0000,  0.0000,  0.0000)
  44 Cu    11.387602    0.000000   23.066282    ( 0.0000,  0.0000,  0.0000)
  45 Cu     9.582452    1.850500   23.634819    ( 0.0000,  0.0000,  0.0000)
  46 Cu     3.730657    1.850500   23.634818    ( 0.0000,  0.0000,  0.0000)
  47 Cu     5.535807    0.000000   23.066282    ( 0.0000,  0.0000,  0.0000)
  48 Cu     3.226805    3.701000    9.823664    ( 0.0000,  0.0000,  0.0000)
  49 Cu     1.421411    5.551500   10.392923    ( 0.0000,  0.0000,  0.0000)
  50 Cu     7.273206    5.551500   10.392923    ( 0.0000,  0.0000,  0.0000)
  51 Cu     9.078599    3.701000    9.823664    ( 0.0000,  0.0000,  0.0000)
  52 Cu    11.428434    3.701000   11.042168    ( 0.0000,  0.0000,  0.0000)
  53 Cu     9.676543    5.551500   11.778120    ( 0.0000,  0.0000,  0.0000)
  54 Cu     3.824750    5.551500   11.778120    ( 0.0000,  0.0000,  0.0000)
  55 Cu     5.576640    3.701000   11.042167    ( 0.0000,  0.0000,  0.0000)
  56 Cu     7.864964    3.701000   12.358787    ( 0.0000,  0.0000,  0.0000)
  57 Cu     6.147371    5.551500   12.895545    ( 0.0000,  0.0000,  0.0000)
  58 Cu     0.295576    5.551500   12.895546    ( 0.0000,  0.0000,  0.0000)
  59 Cu     2.013169    3.701000   12.358789    ( 0.0000,  0.0000,  0.0000)
  60 Cu     4.394400    3.701000   13.475276    ( 0.0000,  0.0000,  0.0000)
  61 Cu     2.622470    5.551500   14.118866    ( 0.0000,  0.0000,  0.0000)
  62 Cu     8.474266    5.551500   14.118865    ( 0.0000,  0.0000,  0.0000)
  63 Cu    10.246195    3.701000   13.475277    ( 0.0000,  0.0000,  0.0000)
  64 Cu     0.855854    3.701000   14.707252    ( 0.0000,  0.0000,  0.0000)
  65 Cu    10.801975    5.551500   15.266395    ( 0.0000,  0.0000,  0.0000)
  66 Cu     4.950179    5.551500   15.266394    ( 0.0000,  0.0000,  0.0000)
  67 Cu     6.707649    3.701000   14.707252    ( 0.0000,  0.0000,  0.0000)
  68 Cu     9.050031    3.701000   15.840316    ( 0.0000,  0.0000,  0.0000)
  69 Cu     7.290201    5.551500   16.440159    ( 0.0000,  0.0000,  0.0000)
  70 Cu     1.438405    5.551500   16.440159    ( 0.0000,  0.0000,  0.0000)
  71 Cu     3.198236    3.701000   15.840316    ( 0.0000,  0.0000,  0.0000)
  72 Cu     5.518858    3.701000   17.019626    ( 0.0000,  0.0000,  0.0000)
  73 Cu     3.758882    5.551500   17.619405    ( 0.0000,  0.0000,  0.0000)
  74 Cu     9.610677    5.551500   17.619405    ( 0.0000,  0.0000,  0.0000)
  75 Cu    11.370653    3.701000   17.019626    ( 0.0000,  0.0000,  0.0000)
  76 Cu     2.006957    3.701000   18.193195    ( 0.0000,  0.0000,  0.0000)
  77 Cu     0.249418    5.551500   18.752766    ( 0.0000,  0.0000,  0.0000)
  78 Cu     6.101212    5.551500   18.752765    ( 0.0000,  0.0000,  0.0000)
  79 Cu     7.858751    3.701000   18.193194    ( 0.0000,  0.0000,  0.0000)
  80 Cu    10.186402    3.701000   19.341198    ( 0.0000,  0.0000,  0.0000)
  81 Cu     8.414218    5.551500   19.984161    ( 0.0000,  0.0000,  0.0000)
  82 Cu     2.562423    5.551500   19.984161    ( 0.0000,  0.0000,  0.0000)
  83 Cu     4.334607    3.701000   19.341197    ( 0.0000,  0.0000,  0.0000)
  84 Cu     6.661385    3.701000   20.564006    ( 0.0000,  0.0000,  0.0000)
  85 Cu     4.943880    5.551500   21.100920    ( 0.0000,  0.0000,  0.0000)
  86 Cu    10.795675    5.551500   21.100919    ( 0.0000,  0.0000,  0.0000)
  87 Cu     0.809590    3.701000   20.564006    ( 0.0000,  0.0000,  0.0000)
  88 Cu     3.132416    3.701000   21.681702    ( 0.0000,  0.0000,  0.0000)
  89 Cu     1.380619    5.551500   22.417317    ( 0.0000,  0.0000,  0.0000)
  90 Cu     7.232413    5.551500   22.417318    ( 0.0000,  0.0000,  0.0000)
  91 Cu     8.984211    3.701000   21.681703    ( 0.0000,  0.0000,  0.0000)
  92 Cu    11.387602    3.701000   23.066282    ( 0.0000,  0.0000,  0.0000)
  93 Cu     9.582452    5.551500   23.634819    ( 0.0000,  0.0000,  0.0000)
  94 Cu     3.730657    5.551500   23.634818    ( 0.0000,  0.0000,  0.0000)
  95 Cu     5.535807    3.701000   23.066282    ( 0.0000,  0.0000,  0.0000)
  96 Cl     8.236987    3.701000   24.486621    ( 0.0000,  0.0000,  0.0000)
  97 Cl     5.322572    5.551500   25.114250    ( 0.0000,  0.0000,  0.0000)
  98 Cl     2.385194    3.701000   24.486620    ( 0.0000,  0.0000,  0.0000)
  99 Cl     2.385193    0.000000   24.486620    ( 0.0000,  0.0000,  0.0000)
 100 Cl     5.322572    1.850500   25.114250    ( 0.0000,  0.0000,  0.0000)
 101 Cl     8.236987    0.000000   24.486623    ( 0.0000,  0.0000,  0.0000)
 102 Cl    11.174365    5.551499   25.114250    ( 0.0000,  0.0000,  0.0000)
 103 Cl    11.174365    1.850501   25.114250    ( 0.0000,  0.0000,  0.0000)
 104 Cl     7.486849    3.701000    8.345973    ( 0.0000,  0.0000,  0.0000)
 105 Cl     7.486849    0.000000    8.345973    ( 0.0000,  0.0000,  0.0000)
 106 Cl     4.571519    1.850500    8.973272    ( 0.0000,  0.0000,  0.0000)
 107 Cl     4.571519    5.551500    8.973272    ( 0.0000,  0.0000,  0.0000)
 108 Cl     1.635055    0.000000    8.345973    ( 0.0000,  0.0000,  0.0000)
 109 Cl     1.635055    3.701000    8.345974    ( 0.0000,  0.0000,  0.0000)
 110 Cl    -1.280274    1.850500    8.973272    ( 0.0000,  0.0000,  0.0000)
 111 Cl    -1.280274    5.551500    8.973272    ( 0.0000,  0.0000,  0.0000)

Unit cell:
           periodic     x           y           z      points  spacing
  1. axis:    yes   11.703590    0.000000    0.000000    70     0.1672
  2. axis:    yes    0.000000    7.402000    0.000000    42     0.1762
  3. axis:    no     0.000000    0.000000   33.459128   192     0.1743

  Lengths:  11.703590   7.402000  33.459128
  Angles:   90.000000  90.000000  90.000000

Effective grid spacing dv^(1/3) = 0.1725

     iter     time        total  log10-change:
                         energy  eigst   dens
iter:   1 21:16:23 -8070.115800  -0.88
iter:   2 21:18:58 -8220.196669  +0.63  -1.05
iter:   3 21:21:31 -8040.090942  +0.45  -0.96
iter:   4 21:24:06 -8298.692341  -0.17  -1.22
iter:   5 21:26:40 -7898.164544  -1.19  -0.96
iter:   6 21:29:14 -7882.976290  -2.01  -1.76
iter:   7 21:31:47 -7882.392029  -3.13  -1.79
iter:   8 21:34:22 -7866.463664  -1.55  -1.80
iter:   9 21:36:56 -7864.934564  -2.50  -1.88
iter:  10 21:39:30 -7865.966865  -2.70  -1.88
iter:  11 21:42:05 -7865.533684  -2.58  -1.86
iter:  12 21:44:40 -7861.556248  -2.46  -1.92
iter:  13 21:47:14 -7859.548829  -2.90  -2.05
iter:  14 21:49:48 -7858.172876  -2.16  -2.16
iter:  15 21:52:22 -7857.674208  -3.21  -2.21
iter:  16 21:54:54 -7858.004646c -3.31  -2.34
iter:  17 21:57:27 -7857.976689c -3.70  -2.28
iter:  18 22:00:02 -7857.960765c -3.91  -2.26
iter:  19 22:02:36 -7857.632911c -4.07  -2.26
iter:  20 22:05:11 -7857.397306c -3.63  -2.36
iter:  21 22:07:46 -7857.166987c -3.57  -2.47
iter:  22 22:10:20 -7857.184049c -3.26  -2.66
iter:  23 22:12:53 -7856.932198c -3.25  -2.54
iter:  24 22:15:28 -7856.923959c -4.72  -2.93
iter:  25 22:18:02 -7856.880064c -3.88  -2.91
iter:  26 22:20:35 -7856.892324c -4.19  -3.01
iter:  27 22:23:09 -7856.878888c -4.59  -3.19
iter:  28 22:25:42 -7856.879344c -4.97  -3.43
iter:  29 22:28:16 -7856.879752c -5.16  -3.40
iter:  30 22:30:51 -7856.878086c -5.32  -3.55
iter:  31 22:33:25 -7856.877684c -6.03  -3.79
iter:  32 22:35:59 -7856.877157c -5.99  -3.91
iter:  33 22:38:34 -7856.877315c -6.54  -3.98
iter:  34 22:41:09 -7856.877441c -6.17  -4.00
iter:  35 22:43:44 -7856.877224c -7.04  -3.91
iter:  36 22:46:19 -7856.877490c -6.92  -4.12c
iter:  37 22:48:54 -7856.877480c -6.41  -4.07c
iter:  38 22:51:29 -7856.877521c -7.37  -4.27c
iter:  39 22:54:05 -7856.877427c -7.28  -4.38c
iter:  40 22:56:40 -7856.877488c -7.92c -4.51c

Converged after 40 iterations.

Dipole moment: (48.154829, -0.000000, -0.003060) |e|*Ang

Energy contributions relative to reference atoms: (reference = -4522938.567079)

Kinetic:       +824.067508
Potential:     -889.739578
External:        +0.000000
XC:            -7789.233509
Entropy (-ST):   -0.958047
Local:           -1.492885
--------------------------
Free energy:   -7857.356511
Extrapolated:  -7856.877488

Showing only first 2 kpts
 Kpt  Band  Eigenvalues  Occupancy
  0   582     -0.21387    1.94298
  0   583     -0.03128    1.69178
  0   584     -0.01408    1.64421
  0   585      0.09366    1.22287

  1   582      0.19084    0.74642
  1   583      0.20117    0.69874
  1   584      0.26396    0.44551
  1   585      0.34972    0.21679


Fermi level: 0.13899

No gap

Forces in eV/Ang:
  0 Cu    0.56744    0.00000    0.65805
  1 Cu    0.07255    0.00000   -0.13836
  2 Cu    0.07255   -0.00000   -0.13836
  3 Cu    0.56744    0.00000    0.65805
  4 Cu   -0.12087    0.00000    0.23625
  5 Cu   -0.28486   -0.00000   -0.28138
  6 Cu   -0.28486   -0.00000   -0.28138
  7 Cu   -0.12087    0.00000    0.23625
  8 Cu    0.09435    0.00000   -0.48181
  9 Cu    0.05955    0.00000   -0.17349
 10 Cu    0.05954   -0.00000   -0.17349
 11 Cu    0.09435    0.00000   -0.48181
 12 Cu   -0.00679    0.00000   -0.05716
 13 Cu   -0.00892   -0.00000   -0.14480
 14 Cu   -0.00892   -0.00000   -0.14480
 15 Cu   -0.00679    0.00000   -0.05716
 16 Cu   -0.02652    0.00000   -0.06735
 17 Cu    0.03853   -0.00000   -0.04341
 18 Cu    0.03853    0.00000   -0.04341
 19 Cu   -0.02651    0.00000   -0.06735
 20 Cu    0.01848    0.00000    0.01877
 21 Cu    0.00895    0.00000   -0.00120
 22 Cu    0.00895   -0.00000   -0.00120
 23 Cu    0.01848    0.00000    0.01877
 24 Cu   -0.00969    0.00000    0.00174
 25 Cu   -0.01752    0.00000   -0.01889
 26 Cu   -0.01752    0.00000   -0.01888
 27 Cu   -0.00969    0.00000    0.00174
 28 Cu   -0.03845    0.00000    0.04314
 29 Cu    0.02680    0.00000    0.06424
 30 Cu    0.02680   -0.00000    0.06425
 31 Cu   -0.03845    0.00000    0.04315
 32 Cu    0.00872    0.00000    0.14111
 33 Cu    0.00747    0.00000    0.05721
 34 Cu    0.00747   -0.00000    0.05721
 35 Cu    0.00873    0.00000    0.14112
 36 Cu   -0.05884    0.00000    0.17158
 37 Cu   -0.09357   -0.00000    0.48021
 38 Cu   -0.09357   -0.00000    0.48021
 39 Cu   -0.05884    0.00000    0.17158
 40 Cu    0.28334    0.00000    0.28007
 41 Cu    0.12082    0.00000   -0.23433
 42 Cu    0.12083    0.00000   -0.23433
 43 Cu    0.28334    0.00000    0.28006
 44 Cu   -0.07188    0.00000    0.14222
 45 Cu   -0.56178   -0.00000   -0.64638
 46 Cu   -0.56177    0.00000   -0.64636
 47 Cu   -0.07188    0.00000    0.14221
 48 Cu    0.56744    0.00000    0.65807
 49 Cu    0.07255   -0.00000   -0.13836
 50 Cu    0.07255    0.00000   -0.13836
 51 Cu    0.56743    0.00000    0.65805
 52 Cu   -0.12087    0.00000    0.23625
 53 Cu   -0.28486    0.00000   -0.28138
 54 Cu   -0.28486    0.00000   -0.28138
 55 Cu   -0.12087    0.00000    0.23625
 56 Cu    0.09435    0.00000   -0.48181
 57 Cu    0.05955   -0.00000   -0.17349
 58 Cu    0.05954    0.00000   -0.17349
 59 Cu    0.09435    0.00000   -0.48182
 60 Cu   -0.00679    0.00000   -0.05715
 61 Cu   -0.00892    0.00000   -0.14480
 62 Cu   -0.00892    0.00000   -0.14480
 63 Cu   -0.00679    0.00000   -0.05715
 64 Cu   -0.02652    0.00000   -0.06735
 65 Cu    0.03853    0.00000   -0.04341
 66 Cu    0.03853   -0.00000   -0.04341
 67 Cu   -0.02652    0.00000   -0.06735
 68 Cu    0.01848    0.00000    0.01877
 69 Cu    0.00895   -0.00000   -0.00120
 70 Cu    0.00895    0.00000   -0.00120
 71 Cu    0.01848    0.00000    0.01877
 72 Cu   -0.00969    0.00000    0.00174
 73 Cu   -0.01752   -0.00000   -0.01889
 74 Cu   -0.01752   -0.00000   -0.01888
 75 Cu   -0.00969    0.00000    0.00174
 76 Cu   -0.03846    0.00000    0.04314
 77 Cu    0.02680   -0.00000    0.06424
 78 Cu    0.02680    0.00000    0.06425
 79 Cu   -0.03845    0.00000    0.04315
 80 Cu    0.00872    0.00000    0.14111
 81 Cu    0.00747   -0.00000    0.05721
 82 Cu    0.00747    0.00000    0.05721
 83 Cu    0.00872    0.00000    0.14112
 84 Cu   -0.05884    0.00000    0.17158
 85 Cu   -0.09357    0.00000    0.48021
 86 Cu   -0.09357    0.00000    0.48021
 87 Cu   -0.05884    0.00000    0.17158
 88 Cu    0.28335    0.00000    0.28006
 89 Cu    0.12082   -0.00000   -0.23433
 90 Cu    0.12083   -0.00000   -0.23433
 91 Cu    0.28335    0.00000    0.28006
 92 Cu   -0.07188    0.00000    0.14221
 93 Cu   -0.56178    0.00000   -0.64638
 94 Cu   -0.56177   -0.00000   -0.64636
 95 Cu   -0.07188    0.00000    0.14222
 96 Cl   -0.37986    0.00000   -0.39018
 97 Cl    0.82774    0.00001   -0.08881
 98 Cl   -0.37987    0.00000   -0.39023
 99 Cl   -0.37986    0.00000   -0.39023
100 Cl    0.82774   -0.00001   -0.08881
101 Cl   -0.37985    0.00000   -0.39019
102 Cl    0.82770   -0.00000   -0.08879
103 Cl    0.82770    0.00000   -0.08879
104 Cl   -0.83760    0.00000    0.08310
105 Cl   -0.83759    0.00000    0.08310
106 Cl    0.38210   -0.00000    0.39272
107 Cl    0.38210    0.00000    0.39272
108 Cl   -0.83760    0.00000    0.08310
109 Cl   -0.83759    0.00000    0.08308
110 Cl    0.38209   -0.00001    0.39273
111 Cl    0.38209    0.00001    0.39273

System changes: positions 

Initializing position-dependent things.

Density initialized from wave functions
      .----------------------------.  
     /|                            |  
    / |                            |  
   /  |                            |  
  /   |                            |  
 *    |                            |  
 |    |                            |  
 |    |                            |  
 |    |                            |  
 |    |                            |  
 |    |                            |  
 |    |                            |  
 |    |           Cl             Cl|  
 |    |       Cu            Cu     |  
 |    |  Cl     Cl      Cl    Cl   |  
 |    | Cu       Cu    Cu       Cu |  
 |    |Cl  Cu    Cu  Cl   Cu   Cu  |  
 |    Cu   Cu       Cu    Cu       |  
 |   Cu    Cu  Cu   Cu    Cu Cu    |  
 |   Cu  Cu   Cu    Cu Cu    Cu    |  
 |    |  Cu   Cu       Cu    Cu    |  
 | Cu | Cu    Cu Cu    Cu    Cu    |  
 | Cu | Cu  Cu   Cu    Cu Cu       |  
 |    |     Cu   Cu       Cu    Cu |  
 |    Cu   Cu    Cu Cu    Cu    Cu |  
 |    Cu   Cu  Cu   Cu    Cu Cu    |  
 |   Cu        Cu   Cu       Cu    |  
 |    |  Cu   Cu       Cu    Cu    |  
 | Cu |  Cu   Cu  Cu   Cu    Cu    |  
 | Cu |     Cu   Cu       Cu       |  
 |    | Cu  Cu   Cu    Cu Cu    Cu |  
 |    Cu    Cu  Cl   Cu   Cu   Cl  |  
 |    Cu       Cu   Cu       Cu    |  
 |    |Cl             Cl           |  
 |    |  Cu   Cl        Cu  Cl     |  
 |    |                            |  
 |   Cl            Cl              |  
 |    |                            |  
 |    |                            |  
 |    |                            |  
 |    |                            |  
 |    .----------------------------.  
 |   /                            /   
 |  /                            /    
 | /                            /     
 |/                            /      
 *----------------------------*       

Positions:
   0 Cu     3.280715    0.000000    9.861511    ( 0.0000,  0.0000,  0.0000)
   1 Cu     1.426742    1.850500   10.372636    ( 0.0000,  0.0000,  0.0000)
   2 Cu     7.278537    1.850500   10.372636    ( 0.0000,  0.0000,  0.0000)
   3 Cu     9.132509    0.000000    9.861512    ( 0.0000,  0.0000,  0.0000)
   4 Cu    11.415561    0.000000   11.062506    ( 0.0000,  0.0000,  0.0000)
   5 Cu     9.649193    1.850500   11.751135    ( 0.0000,  0.0000,  0.0000)
   6 Cu     3.797399    1.850500   11.751136    ( 0.0000,  0.0000,  0.0000)
   7 Cu     5.563767    0.000000   11.062506    ( 0.0000,  0.0000,  0.0000)
   8 Cu     7.873794    0.000000   12.312386    ( 0.0000,  0.0000,  0.0000)
   9 Cu     6.152923    1.850500   12.878624    ( 0.0000,  0.0000,  0.0000)
  10 Cu     0.301128    1.850500   12.878625    ( 0.0000,  0.0000,  0.0000)
  11 Cu     2.021999    0.000000   12.312387    ( 0.0000,  0.0000,  0.0000)
  12 Cu     4.393594    0.000000   13.468621    ( 0.0000,  0.0000,  0.0000)
  13 Cu     2.621616    1.850500   14.106359    ( 0.0000,  0.0000,  0.0000)
  14 Cu     8.473411    1.850500   14.106359    ( 0.0000,  0.0000,  0.0000)
  15 Cu    10.245389    0.000000   13.468621    ( 0.0000,  0.0000,  0.0000)
  16 Cu     0.853891    0.000000   14.701494    ( 0.0000,  0.0000,  0.0000)
  17 Cu    10.805319    1.850500   15.262247    ( 0.0000,  0.0000,  0.0000)
  18 Cu     4.953524    1.850500   15.262246    ( 0.0000,  0.0000,  0.0000)
  19 Cu     6.705686    0.000000   14.701493    ( 0.0000,  0.0000,  0.0000)
  20 Cu     9.051878    0.000000   15.841764    ( 0.0000,  0.0000,  0.0000)
  21 Cu     7.291053    1.850500   16.440508    ( 0.0000,  0.0000,  0.0000)
  22 Cu     1.439258    1.850500   16.440508    ( 0.0000,  0.0000,  0.0000)
  23 Cu     3.200083    0.000000   15.841764    ( 0.0000,  0.0000,  0.0000)
  24 Cu     5.517948    0.000000   17.019347    ( 0.0000,  0.0000,  0.0000)
  25 Cu     3.757124    1.850500   17.617957    ( 0.0000,  0.0000,  0.0000)
  26 Cu     9.608919    1.850500   17.617957    ( 0.0000,  0.0000,  0.0000)
  27 Cu    11.369743    0.000000   17.019348    ( 0.0000,  0.0000,  0.0000)
  28 Cu     2.003620    0.000000   18.197326    ( 0.0000,  0.0000,  0.0000)
  29 Cu     0.251406    1.850500   18.758278    ( 0.0000,  0.0000,  0.0000)
  30 Cu     6.103201    1.850500   18.758278    ( 0.0000,  0.0000,  0.0000)
  31 Cu     7.855415    0.000000   18.197326    ( 0.0000,  0.0000,  0.0000)
  32 Cu    10.187245    0.000000   19.353401    ( 0.0000,  0.0000,  0.0000)
  33 Cu     8.415081    1.850500   19.990820    ( 0.0000,  0.0000,  0.0000)
  34 Cu     2.563286    1.850500   19.990819    ( 0.0000,  0.0000,  0.0000)
  35 Cu     4.335450    0.000000   19.353400    ( 0.0000,  0.0000,  0.0000)
  36 Cu     6.655900    0.000000   20.580764    ( 0.0000,  0.0000,  0.0000)
  37 Cu     4.935114    1.850500   21.147196    ( 0.0000,  0.0000,  0.0000)
  38 Cu    10.786909    1.850500   21.147195    ( 0.0000,  0.0000,  0.0000)
  39 Cu     0.804105    0.000000   20.580764    ( 0.0000,  0.0000,  0.0000)
  40 Cu     3.159636    0.000000   21.708590    ( 0.0000,  0.0000,  0.0000)
  41 Cu     1.393495    1.850500   22.397161    ( 0.0000,  0.0000,  0.0000)
  42 Cu     7.245290    1.850500   22.397162    ( 0.0000,  0.0000,  0.0000)
  43 Cu     9.011430    0.000000   21.708590    ( 0.0000,  0.0000,  0.0000)
  44 Cu    11.382333    0.000000   23.086914    ( 0.0000,  0.0000,  0.0000)
  45 Cu     9.529070    1.850500   23.598000    ( 0.0000,  0.0000,  0.0000)
  46 Cu     3.677276    1.850500   23.598000    ( 0.0000,  0.0000,  0.0000)
  47 Cu     5.530539    0.000000   23.086914    ( 0.0000,  0.0000,  0.0000)
  48 Cu     3.280716    3.701000    9.861513    ( 0.0000,  0.0000,  0.0000)
  49 Cu     1.426742    5.551500   10.372636    ( 0.0000,  0.0000,  0.0000)
  50 Cu     7.278537    5.551500   10.372636    ( 0.0000,  0.0000,  0.0000)
  51 Cu     9.132508    3.701000    9.861512    ( 0.0000,  0.0000,  0.0000)
  52 Cu    11.415561    3.701000   11.062506    ( 0.0000,  0.0000,  0.0000)
  53 Cu     9.649193    5.551500   11.751135    ( 0.0000,  0.0000,  0.0000)
  54 Cu     3.797399    5.551500   11.751136    ( 0.0000,  0.0000,  0.0000)
  55 Cu     5.563767    3.701000   11.062505    ( 0.0000,  0.0000,  0.0000)
  56 Cu     7.873794    3.701000   12.312386    ( 0.0000,  0.0000,  0.0000)
  57 Cu     6.152923    5.551500   12.878624    ( 0.0000,  0.0000,  0.0000)
  58 Cu     0.301128    5.551500   12.878625    ( 0.0000,  0.0000,  0.0000)
  59 Cu     2.021999    3.701000   12.312387    ( 0.0000,  0.0000,  0.0000)
  60 Cu     4.393594    3.701000   13.468621    ( 0.0000,  0.0000,  0.0000)
  61 Cu     2.621616    5.551500   14.106359    ( 0.0000,  0.0000,  0.0000)
  62 Cu     8.473411    5.551500   14.106359    ( 0.0000,  0.0000,  0.0000)
  63 Cu    10.245389    3.701000   13.468621    ( 0.0000,  0.0000,  0.0000)
  64 Cu     0.853891    3.701000   14.701494    ( 0.0000,  0.0000,  0.0000)
  65 Cu    10.805319    5.551500   15.262247    ( 0.0000,  0.0000,  0.0000)
  66 Cu     4.953524    5.551500   15.262246    ( 0.0000,  0.0000,  0.0000)
  67 Cu     6.705686    3.701000   14.701493    ( 0.0000,  0.0000,  0.0000)
  68 Cu     9.051878    3.701000   15.841764    ( 0.0000,  0.0000,  0.0000)
  69 Cu     7.291053    5.551500   16.440508    ( 0.0000,  0.0000,  0.0000)
  70 Cu     1.439258    5.551500   16.440508    ( 0.0000,  0.0000,  0.0000)
  71 Cu     3.200083    3.701000   15.841764    ( 0.0000,  0.0000,  0.0000)
  72 Cu     5.517948    3.701000   17.019347    ( 0.0000,  0.0000,  0.0000)
  73 Cu     3.757124    5.551500   17.617957    ( 0.0000,  0.0000,  0.0000)
  74 Cu     9.608919    5.551500   17.617957    ( 0.0000,  0.0000,  0.0000)
  75 Cu    11.369743    3.701000   17.019348    ( 0.0000,  0.0000,  0.0000)
  76 Cu     2.003620    3.701000   18.197326    ( 0.0000,  0.0000,  0.0000)
  77 Cu     0.251406    5.551500   18.758278    ( 0.0000,  0.0000,  0.0000)
  78 Cu     6.103201    5.551500   18.758278    ( 0.0000,  0.0000,  0.0000)
  79 Cu     7.855415    3.701000   18.197326    ( 0.0000,  0.0000,  0.0000)
  80 Cu    10.187245    3.701000   19.353401    ( 0.0000,  0.0000,  0.0000)
  81 Cu     8.415081    5.551500   19.990820    ( 0.0000,  0.0000,  0.0000)
  82 Cu     2.563286    5.551500   19.990819    ( 0.0000,  0.0000,  0.0000)
  83 Cu     4.335450    3.701000   19.353400    ( 0.0000,  0.0000,  0.0000)
  84 Cu     6.655900    3.701000   20.580764    ( 0.0000,  0.0000,  0.0000)
  85 Cu     4.935114    5.551500   21.147196    ( 0.0000,  0.0000,  0.0000)
  86 Cu    10.786909    5.551500   21.147195    ( 0.0000,  0.0000,  0.0000)
  87 Cu     0.804105    3.701000   20.580764    ( 0.0000,  0.0000,  0.0000)
  88 Cu     3.159636    3.701000   21.708589    ( 0.0000,  0.0000,  0.0000)
  89 Cu     1.393495    5.551500   22.397161    ( 0.0000,  0.0000,  0.0000)
  90 Cu     7.245290    5.551500   22.397162    ( 0.0000,  0.0000,  0.0000)
  91 Cu     9.011430    3.701000   21.708590    ( 0.0000,  0.0000,  0.0000)
  92 Cu    11.382334    3.701000   23.086914    ( 0.0000,  0.0000,  0.0000)
  93 Cu     9.529070    5.551500   23.598000    ( 0.0000,  0.0000,  0.0000)
  94 Cu     3.677276    5.551500   23.598000    ( 0.0000,  0.0000,  0.0000)
  95 Cu     5.530539    3.701000   23.086914    ( 0.0000,  0.0000,  0.0000)
  96 Cl     8.206686    3.701000   24.432506    ( 0.0000,  0.0000,  0.0000)
  97 Cl     5.392517    5.551501   25.088589    ( 0.0000,  0.0000,  0.0000)
  98 Cl     2.354892    3.701000   24.432500    ( 0.0000,  0.0000,  0.0000)
  99 Cl     2.354892    0.000000   24.432500    ( 0.0000,  0.0000,  0.0000)
 100 Cl     5.392517    1.850499   25.088589    ( 0.0000,  0.0000,  0.0000)
 101 Cl     8.206686    0.000000   24.432508    ( 0.0000,  0.0000,  0.0000)
 102 Cl    11.244307    5.551499   25.088592    ( 0.0000,  0.0000,  0.0000)
 103 Cl    11.244307    1.850501   25.088592    ( 0.0000,  0.0000,  0.0000)
 104 Cl     7.416033    3.701000    8.371168    ( 0.0000,  0.0000,  0.0000)
 105 Cl     7.416034    0.000000    8.371169    ( 0.0000,  0.0000,  0.0000)
 106 Cl     4.602012    1.850500    9.027671    ( 0.0000,  0.0000,  0.0000)
 107 Cl     4.602012    5.551500    9.027671    ( 0.0000,  0.0000,  0.0000)
 108 Cl     1.564239    0.000000    8.371169    ( 0.0000,  0.0000,  0.0000)
 109 Cl     1.564240    3.701000    8.371168    ( 0.0000,  0.0000,  0.0000)
 110 Cl    -1.249782    1.850499    9.027672    ( 0.0000,  0.0000,  0.0000)
 111 Cl    -1.249782    5.551501    9.027672    ( 0.0000,  0.0000,  0.0000)

Unit cell:
           periodic     x           y           z      points  spacing
  1. axis:    yes   11.703590    0.000000    0.000000    70     0.1672
  2. axis:    yes    0.000000    7.402000    0.000000    42     0.1762
  3. axis:    no     0.000000    0.000000   33.459128   192     0.1743

  Lengths:  11.703590   7.402000  33.459128
  Angles:   90.000000  90.000000  90.000000

Effective grid spacing dv^(1/3) = 0.1725

     iter     time        total  log10-change:
                         energy  eigst   dens
iter:   1 23:00:52 -7877.460868  -1.51
iter:   2 23:03:30 -7872.331880  -1.37  -1.66
iter:   3 23:06:08 -7859.686024  -2.46  -1.94
iter:   4 23:08:45 -7858.864383  -3.27  -2.40
iter:   5 23:11:21 -7859.112954  -2.62  -2.48
iter:   6 23:13:57 -7858.204280  -3.08  -2.37
iter:   7 23:16:33 -7858.043373  -3.54  -2.69
iter:   8 23:19:09 -7858.017219c -4.04  -2.90
iter:   9 23:21:44 -7858.005001c -4.13  -3.06
iter:  10 23:24:21 -7858.006697c -4.48  -3.19
iter:  11 23:26:58 -7857.999922c -4.65  -3.35
iter:  12 23:29:34 -7858.002260c -4.96  -3.53
iter:  13 23:32:10 -7857.992823c -5.25  -3.37
iter:  14 23:34:48 -7857.993312c -5.40  -3.70
iter:  15 23:37:25 -7857.993232c -5.78  -3.81
iter:  16 23:40:02 -7857.992399c -6.00  -4.12c
iter:  17 23:42:37 -7857.992190c -5.96  -4.20c
iter:  18 23:45:12 -7857.992307c -7.03  -4.31c
iter:  19 23:47:41 -7857.992278c -7.45c -4.44c

Converged after 19 iterations.

Dipole moment: (53.916186, -0.000000, -0.002057) |e|*Ang

Energy contributions relative to reference atoms: (reference = -4522938.567079)

Kinetic:       +818.227317
Potential:     -884.433870
External:        +0.000000
XC:            -7789.688847
Entropy (-ST):   -0.954783
Local:           -1.619486
--------------------------
Free energy:   -7858.469670
Extrapolated:  -7857.992278

Showing only first 2 kpts
 Kpt  Band  Eigenvalues  Occupancy
  0   582     -0.17069    1.94290
  0   583      0.00593    1.70665
  0   584      0.03493    1.62642
  0   585      0.13752    1.21890

  1   582      0.23578    0.73749
  1   583      0.24708    0.68572
  1   584      0.29713    0.48058
  1   585      0.39194    0.21835


Fermi level: 0.18202

No gap

Forces in eV/Ang:
  0 Cu   -0.03842    0.00000    0.13459
  1 Cu    0.03163    0.00000   -0.17770
  2 Cu    0.03163   -0.00000   -0.17770
  3 Cu   -0.03842    0.00000    0.13458
  4 Cu    0.01374    0.00000    0.25013
  5 Cu   -0.17444    0.00000   -0.10662
  6 Cu   -0.17444   -0.00000   -0.10662
  7 Cu    0.01373    0.00000    0.25013
  8 Cu    0.03216    0.00000   -0.30140
  9 Cu    0.02711   -0.00000   -0.13088
 10 Cu    0.02711   -0.00000   -0.13088
 11 Cu    0.03216    0.00000   -0.30141
 12 Cu   -0.02594    0.00000   -0.06780
 13 Cu   -0.01217    0.00000   -0.13436
 14 Cu   -0.01217    0.00000   -0.13436
 15 Cu   -0.02594    0.00000   -0.06780
 16 Cu    0.01343    0.00000   -0.11289
 17 Cu    0.01988    0.00000   -0.05885
 18 Cu    0.01988   -0.00000   -0.05885
 19 Cu    0.01343    0.00000   -0.11289
 20 Cu    0.00081    0.00000   -0.02019
 21 Cu    0.00586   -0.00000   -0.01981
 22 Cu    0.00586    0.00000   -0.01981
 23 Cu    0.00082    0.00000   -0.02019
 24 Cu   -0.00570    0.00000    0.02094
 25 Cu   -0.00060    0.00000    0.02130
 26 Cu   -0.00060   -0.00000    0.02131
 27 Cu   -0.00571    0.00000    0.02094
 28 Cu   -0.01928    0.00000    0.06019
 29 Cu   -0.01319   -0.00000    0.11347
 30 Cu   -0.01319   -0.00000    0.11347
 31 Cu   -0.01927    0.00000    0.06020
 32 Cu    0.01189    0.00000    0.13500
 33 Cu    0.02633   -0.00000    0.06891
 34 Cu    0.02633    0.00000    0.06891
 35 Cu    0.01189    0.00000    0.13500
 36 Cu   -0.02683    0.00000    0.13232
 37 Cu   -0.03235   -0.00000    0.30207
 38 Cu   -0.03235   -0.00000    0.30207
 39 Cu   -0.02683    0.00000    0.13232
 40 Cu    0.17421    0.00000    0.10760
 41 Cu   -0.01356   -0.00000   -0.24881
 42 Cu   -0.01355   -0.00000   -0.24881
 43 Cu    0.17421    0.00000    0.10760
 44 Cu   -0.02985    0.00000    0.17716
 45 Cu    0.03333   -0.00000   -0.13538
 46 Cu    0.03334   -0.00000   -0.13538
 47 Cu   -0.02984    0.00000    0.17716
 48 Cu   -0.03843    0.00000    0.13458
 49 Cu    0.03163   -0.00000   -0.17770
 50 Cu    0.03163    0.00000   -0.17770
 51 Cu   -0.03842    0.00000    0.13458
 52 Cu    0.01374    0.00000    0.25013
 53 Cu   -0.17444   -0.00000   -0.10662
 54 Cu   -0.17444    0.00000   -0.10662
 55 Cu    0.01374    0.00000    0.25013
 56 Cu    0.03216    0.00000   -0.30140
 57 Cu    0.02711    0.00000   -0.13088
 58 Cu    0.02711    0.00000   -0.13088
 59 Cu    0.03216    0.00000   -0.30140
 60 Cu   -0.02594    0.00000   -0.06780
 61 Cu   -0.01217   -0.00000   -0.13436
 62 Cu   -0.01217   -0.00000   -0.13436
 63 Cu   -0.02594    0.00000   -0.06780
 64 Cu    0.01343    0.00000   -0.11289
 65 Cu    0.01988   -0.00000   -0.05885
 66 Cu    0.01988    0.00000   -0.05885
 67 Cu    0.01343    0.00000   -0.11289
 68 Cu    0.00082    0.00000   -0.02019
 69 Cu    0.00586    0.00000   -0.01981
 70 Cu    0.00586   -0.00000   -0.01981
 71 Cu    0.00081    0.00000   -0.02019
 72 Cu   -0.00571    0.00000    0.02094
 73 Cu   -0.00060   -0.00000    0.02130
 74 Cu   -0.00060    0.00000    0.02131
 75 Cu   -0.00571    0.00000    0.02094
 76 Cu   -0.01927    0.00000    0.06020
 77 Cu   -0.01319    0.00000    0.11347
 78 Cu   -0.01319    0.00000    0.11347
 79 Cu   -0.01928    0.00000    0.06019
 80 Cu    0.01189    0.00000    0.13500
 81 Cu    0.02633    0.00000    0.06891
 82 Cu    0.02633   -0.00000    0.06891
 83 Cu    0.01189    0.00000    0.13500
 84 Cu   -0.02683    0.00000    0.13232
 85 Cu   -0.03235    0.00000    0.30207
 86 Cu   -0.03235    0.00000    0.30207
 87 Cu   -0.02683    0.00000    0.13232
 88 Cu    0.17421    0.00000    0.10760
 89 Cu   -0.01356    0.00000   -0.24881
 90 Cu   -0.01355    0.00000   -0.24881
 91 Cu    0.17420    0.00000    0.10760
 92 Cu   -0.02985    0.00000    0.17716
 93 Cu    0.03333    0.00000   -0.13538
 94 Cu    0.03334    0.00000   -0.13538
 95 Cu   -0.02985    0.00000    0.17716
 96 Cl   -0.22059    0.00000   -0.20130
 97 Cl    0.17472    0.00000   -0.54936
 98 Cl   -0.22060    0.00000   -0.20128
 99 Cl   -0.22060    0.00000   -0.20129
100 Cl    0.17472   -0.00000   -0.54936
101 Cl   -0.22058    0.00000   -0.20131
102 Cl    0.17473    0.00000   -0.54937
103 Cl    0.17473   -0.00000   -0.54937
104 Cl   -0.17304    0.00000    0.54890
105 Cl   -0.17305    0.00000    0.54890
106 Cl    0.22301    0.00000    0.19546
107 Cl    0.22301   -0.00000    0.19546
108 Cl   -0.17305    0.00000    0.54890
109 Cl   -0.17305    0.00000    0.54890
110 Cl    0.22300    0.00000    0.19547
111 Cl    0.22300   -0.00000    0.19547

System changes: positions 

Initializing position-dependent things.

Density initialized from wave functions
      .----------------------------.  
     /|                            |  
    / |                            |  
   /  |                            |  
  /   |                            |  
 *    |                            |  
 |    |                            |  
 |    |                            |  
 |    |                            |  
 |    |                            |  
 |    |                            |  
 |    |                            |  
 |    |           Cl             Cl|  
 |    |       Cu            Cu     |  
 |    |  Cl     Cl      Cl    Cl   |  
 |    | Cu       Cu    Cu       Cu |  
 |    |Cl  Cu    Cu  Cl   Cu   Cu  |  
 |    Cu   Cu       Cu    Cu       |  
 |   Cu    Cu  Cu   Cu    Cu Cu    |  
 |   Cu  Cu   Cu    Cu Cu    Cu    |  
 |    |  Cu   Cu       Cu    Cu    |  
 | Cu | Cu    Cu Cu    Cu    Cu    |  
 | Cu | Cu  Cu   Cu    Cu Cu       |  
 |    |     Cu   Cu       Cu    Cu |  
 |    Cu   Cu    Cu Cu    Cu    Cu |  
 |    Cu   Cu  Cu   Cu    Cu Cu    |  
 |    Cu       Cu   Cu       Cu    |  
 |    Cu Cu   Cu    Cu Cu    Cu    |  
 | Cu |  Cu   Cu  Cu   Cu    Cu    |  
 | Cu |  Cu       Cu   Cu          |  
 |    | Cu  Cu   Cu    Cu Cu    Cu |  
 |    Cu    Cu  Cl   Cu   Cu   Cl  |  
 |    Cu       Cu   Cu       Cu    |  
 |    |Cl             Cl           |  
 |    |  Cu   Cl        Cu  Cl     |  
 |    |                            |  
 |   Cl            Cl              |  
 |    |                            |  
 |    |                            |  
 |    |                            |  
 |    |                            |  
 |    .----------------------------.  
 |   /                            /   
 |  /                            /    
 | /                            /     
 |/                            /      
[...]
  27 Cu    11.375318    0.000000   17.024370    ( 0.0000,  0.0000,  0.0000)
  28 Cu     2.001956    0.000000   18.193429    ( 0.0000,  0.0000,  0.0000)
  29 Cu     0.236342    1.850500   18.782158    ( 0.0000,  0.0000,  0.0000)
  30 Cu     6.088137    1.850500   18.782159    ( 0.0000,  0.0000,  0.0000)
  31 Cu     7.853751    0.000000   18.193430    ( 0.0000,  0.0000,  0.0000)
  32 Cu    10.190637    0.000000   19.364715    ( 0.0000,  0.0000,  0.0000)
  33 Cu     8.428988    1.850500   19.951142    ( 0.0000,  0.0000,  0.0000)
  34 Cu     2.577193    1.850500   19.951143    ( 0.0000,  0.0000,  0.0000)
  35 Cu     4.338842    0.000000   19.364716    ( 0.0000,  0.0000,  0.0000)
  36 Cu     6.636387    0.000000   20.540167    ( 0.0000,  0.0000,  0.0000)
  37 Cu     4.886501    1.850500   21.186898    ( 0.0000,  0.0000,  0.0000)
  38 Cu    10.738297    1.850500   21.186897    ( 0.0000,  0.0000,  0.0000)
  39 Cu     0.784593    0.000000   20.540167    ( 0.0000,  0.0000,  0.0000)
  40 Cu     3.182295    0.000000   21.700963    ( 0.0000,  0.0000,  0.0000)
  41 Cu     1.412179    1.850500   22.183369    ( 0.0000,  0.0000,  0.0000)
  42 Cu     7.263974    1.850500   22.183368    ( 0.0000,  0.0000,  0.0000)
  43 Cu     9.034090    0.000000   21.700963    ( 0.0000,  0.0000,  0.0000)
  44 Cu    11.391085    0.000000   22.979405    ( 0.0000,  0.0000,  0.0000)
  45 Cu     9.446496    1.850501   23.570408    ( 0.0000,  0.0000,  0.0000)
  46 Cu     3.594700    1.850500   23.570409    ( 0.0000,  0.0000,  0.0000)
  47 Cu     5.539290    0.000000   22.979404    ( 0.0000,  0.0000,  0.0000)
  48 Cu     3.363062    3.701000    9.893751    ( 0.0000,  0.0000,  0.0000)
  49 Cu     1.417350    5.551502   10.481232    ( 0.0000,  0.0000,  0.0000)
  50 Cu     7.269144    5.551499   10.481232    ( 0.0000,  0.0000,  0.0000)
  51 Cu     9.214858    3.701000    9.893750    ( 0.0000,  0.0000,  0.0000)
  52 Cu    11.396305    3.701000   11.282201    ( 0.0000,  0.0000,  0.0000)
  53 Cu     9.626326    5.551499   11.763217    ( 0.0000,  0.0000,  0.0000)
  54 Cu     3.774530    5.551501   11.763216    ( 0.0000,  0.0000,  0.0000)
  55 Cu     5.544508    3.701000   11.282199    ( 0.0000,  0.0000,  0.0000)
  56 Cu     7.922182    3.701000   12.276551    ( 0.0000,  0.0000,  0.0000)
  57 Cu     6.172918    5.551500   12.923443    ( 0.0000,  0.0000,  0.0000)
  58 Cu     0.321124    5.551499   12.923443    ( 0.0000,  0.0000,  0.0000)
  59 Cu     2.070389    3.701000   12.276550    ( 0.0000,  0.0000,  0.0000)
  60 Cu     4.380233    3.701000   13.512736    ( 0.0000,  0.0000,  0.0000)
  61 Cu     2.618954    5.551500   14.099416    ( 0.0000,  0.0000,  0.0000)
  62 Cu     8.470749    5.551499   14.099415    ( 0.0000,  0.0000,  0.0000)
  63 Cu    10.232029    3.701000   13.512735    ( 0.0000,  0.0000,  0.0000)
  64 Cu     0.869981    3.701000   14.682392    ( 0.0000,  0.0000,  0.0000)
  65 Cu    10.809198    5.551500   15.270801    ( 0.0000,  0.0000,  0.0000)
  66 Cu     4.957403    5.551500   15.270801    ( 0.0000,  0.0000,  0.0000)
  67 Cu     6.721775    3.701000   14.682393    ( 0.0000,  0.0000,  0.0000)
  68 Cu     9.052622    3.701000   15.843439    ( 0.0000,  0.0000,  0.0000)
  69 Cu     7.287716    5.551500   16.440681    ( 0.0000,  0.0000,  0.0000)
  70 Cu     1.435920    5.551500   16.440680    ( 0.0000,  0.0000,  0.0000)
  71 Cu     3.200827    3.701000   15.843439    ( 0.0000,  0.0000,  0.0000)
  72 Cu     5.523523    3.701000   17.024371    ( 0.0000,  0.0000,  0.0000)
  73 Cu     3.758385    5.551500   17.620725    ( 0.0000,  0.0000,  0.0000)
  74 Cu     9.610180    5.551500   17.620724    ( 0.0000,  0.0000,  0.0000)
  75 Cu    11.375318    3.701000   17.024370    ( 0.0000,  0.0000,  0.0000)
  76 Cu     2.001956    3.701000   18.193430    ( 0.0000,  0.0000,  0.0000)
  77 Cu     0.236342    5.551500   18.782158    ( 0.0000,  0.0000,  0.0000)
  78 Cu     6.088137    5.551500   18.782159    ( 0.0000,  0.0000,  0.0000)
  79 Cu     7.853751    3.701000   18.193429    ( 0.0000,  0.0000,  0.0000)
  80 Cu    10.190637    3.701000   19.364716    ( 0.0000,  0.0000,  0.0000)
  81 Cu     8.428988    5.551500   19.951142    ( 0.0000,  0.0000,  0.0000)
  82 Cu     2.577193    5.551500   19.951143    ( 0.0000,  0.0000,  0.0000)
  83 Cu     4.338842    3.701000   19.364716    ( 0.0000,  0.0000,  0.0000)
  84 Cu     6.636387    3.701000   20.540167    ( 0.0000,  0.0000,  0.0000)
  85 Cu     4.886501    5.551500   21.186898    ( 0.0000,  0.0000,  0.0000)
  86 Cu    10.738297    5.551500   21.186897    ( 0.0000,  0.0000,  0.0000)
  87 Cu     0.784592    3.701000   20.540167    ( 0.0000,  0.0000,  0.0000)
  88 Cu     3.182295    3.701000   21.700963    ( 0.0000,  0.0000,  0.0000)
  89 Cu     1.412179    5.551500   22.183369    ( 0.0000,  0.0000,  0.0000)
  90 Cu     7.263974    5.551500   22.183368    ( 0.0000,  0.0000,  0.0000)
  91 Cu     9.034090    3.701000   21.700963    ( 0.0000,  0.0000,  0.0000)
  92 Cu    11.391085    3.701000   22.979404    ( 0.0000,  0.0000,  0.0000)
  93 Cu     9.446496    5.551499   23.570408    ( 0.0000,  0.0000,  0.0000)
  94 Cu     3.594700    5.551500   23.570409    ( 0.0000,  0.0000,  0.0000)
  95 Cu     5.539289    3.701000   22.979405    ( 0.0000,  0.0000,  0.0000)
  96 Cl    10.135615    3.701000   24.949291    ( 0.0000,  0.0000,  0.0000)
  97 Cl     7.152721    5.551499   24.430771    ( 0.0000,  0.0000,  0.0000)
  98 Cl     4.283820    3.701000   24.949291    ( 0.0000,  0.0000,  0.0000)
  99 Cl     4.283821    0.000000   24.949291    ( 0.0000,  0.0000,  0.0000)
 100 Cl     7.152721    1.850501   24.430771    ( 0.0000,  0.0000,  0.0000)
 101 Cl    10.135613    0.000000   24.949290    ( 0.0000,  0.0000,  0.0000)
 102 Cl    13.004513    5.551501   24.430772    ( 0.0000,  0.0000,  0.0000)
 103 Cl    13.004513    1.850499   24.430772    ( 0.0000,  0.0000,  0.0000)
 104 Cl     5.659877    3.701000    9.033351    ( 0.0000,  0.0000,  0.0000)
 105 Cl     5.659877    0.000000    9.033349    ( 0.0000,  0.0000,  0.0000)
 106 Cl     2.676940    1.850500    8.513848    ( 0.0000,  0.0000,  0.0000)
 107 Cl     2.676940    5.551500    8.513848    ( 0.0000,  0.0000,  0.0000)
 108 Cl    -0.191921    0.000000    9.033351    ( 0.0000,  0.0000,  0.0000)
 109 Cl    -0.191921    3.701000    9.033347    ( 0.0000,  0.0000,  0.0000)
 110 Cl    -3.174853    1.850499    8.513848    ( 0.0000,  0.0000,  0.0000)
 111 Cl    -3.174853    5.551501    8.513848    ( 0.0000,  0.0000,  0.0000)

Unit cell:
           periodic     x           y           z      points  spacing
  1. axis:    yes   11.703590    0.000000    0.000000    70     0.1672
  2. axis:    yes    0.000000    7.402000    0.000000    42     0.1762
  3. axis:    no     0.000000    0.000000   33.459128   192     0.1743

  Lengths:  11.703590   7.402000  33.459128
  Angles:   90.000000  90.000000  90.000000

Effective grid spacing dv^(1/3) = 0.1725

     iter     time        total  log10-change:
                         energy  eigst   dens
iter:   1 09:47:00 -7861.172723  -3.64
iter:   2 09:49:21 -7861.162020  -4.08  -3.03
iter:   3 09:51:41 -7861.128765c -4.59  -3.06
iter:   4 09:54:01 -7861.112915c -5.45  -3.26
iter:   5 09:56:20 -7861.111288c -4.80  -3.54
iter:   6 09:58:39 -7861.110973c -5.96  -3.91
iter:   7 10:00:58 -7861.110888c -6.03  -4.04c
iter:   8 10:03:17 -7861.111091c -6.28  -4.13c
iter:   9 10:05:35 -7861.110857c -6.69  -4.28c
iter:  10 10:07:54 -7861.110737c -7.03  -4.47c
iter:  11 10:10:12 -7861.110729c -7.25  -4.52c
iter:  12 10:12:30 -7861.110688c -7.04  -4.60c
iter:  13 10:14:49 -7861.110722c -7.71c -4.73c

Converged after 13 iterations.

Dipole moment: (56.028552, 0.000000, 0.000116) |e|*Ang

Energy contributions relative to reference atoms: (reference = -4522938.567079)

Kinetic:       +841.910941
Potential:     -904.295036
External:        +0.000000
XC:            -7796.968436
Entropy (-ST):   -0.958083
Local:           -1.279149
--------------------------
Free energy:   -7861.589763
Extrapolated:  -7861.110722

Showing only first 2 kpts
 Kpt  Band  Eigenvalues  Occupancy
  0   582     -0.05873    1.94115
  0   583     -0.05036    1.93617
  0   584      0.14025    1.63698
  0   585      0.18293    1.49276

  1   582      0.35465    0.69150
  1   583      0.39834    0.50903
  1   584      0.41399    0.45194
  1   585      0.44624    0.34909


Fermi level: 0.29087

No gap

Forces in eV/Ang:
  0 Cu   -0.00693    0.00000    0.01939
  1 Cu   -0.01902    0.00000   -0.00904
  2 Cu   -0.01902   -0.00000   -0.00904
  3 Cu   -0.00693    0.00000    0.01939
  4 Cu   -0.01351    0.00000   -0.00984
  5 Cu   -0.00653   -0.00000    0.00164
  6 Cu   -0.00652    0.00000    0.00164
  7 Cu   -0.01351    0.00000   -0.00985
  8 Cu   -0.01263    0.00000    0.01109
  9 Cu   -0.01362    0.00001   -0.00384
 10 Cu   -0.01362   -0.00001   -0.00383
 11 Cu   -0.01263    0.00000    0.01109
 12 Cu   -0.00298    0.00000    0.00232
 13 Cu   -0.00099   -0.00000    0.01037
 14 Cu   -0.00099   -0.00000    0.01038
 15 Cu   -0.00298    0.00000    0.00231
 16 Cu   -0.00477    0.00000   -0.00327
 17 Cu    0.00123    0.00000   -0.00266
 18 Cu    0.00123   -0.00000   -0.00266
 19 Cu   -0.00477    0.00000   -0.00326
 20 Cu   -0.00498    0.00000    0.00568
 21 Cu   -0.00360    0.00000   -0.00115
 22 Cu   -0.00360    0.00000   -0.00115
 23 Cu   -0.00498    0.00000    0.00568
 24 Cu    0.00203    0.00000   -0.00144
 25 Cu    0.00450    0.00000   -0.00573
 26 Cu    0.00451   -0.00000   -0.00573
 27 Cu    0.00203    0.00000   -0.00143
 28 Cu   -0.00425    0.00000    0.00260
 29 Cu    0.00622    0.00000    0.00118
 30 Cu    0.00622   -0.00000    0.00117
 31 Cu   -0.00424    0.00000    0.00260
 32 Cu    0.00117    0.00000   -0.01064
 33 Cu    0.00231    0.00000    0.00152
 34 Cu    0.00231   -0.00000    0.00152
 35 Cu    0.00117    0.00000   -0.01064
 36 Cu    0.01629    0.00000    0.00534
 37 Cu    0.01397    0.00000   -0.01267
 38 Cu    0.01397   -0.00000   -0.01267
 39 Cu    0.01629    0.00000    0.00534
 40 Cu    0.00598    0.00000   -0.00416
 41 Cu    0.01577   -0.00000   -0.00648
 42 Cu    0.01577    0.00000   -0.00649
 43 Cu    0.00598    0.00000   -0.00416
 44 Cu    0.01594    0.00000    0.01710
 45 Cu    0.01153    0.00000   -0.01820
 46 Cu    0.01153   -0.00000   -0.01819
 47 Cu    0.01593    0.00000    0.01711
 48 Cu   -0.00694    0.00000    0.01938
 49 Cu   -0.01902   -0.00000   -0.00904
 50 Cu   -0.01902    0.00000   -0.00904
 51 Cu   -0.00692    0.00000    0.01938
 52 Cu   -0.01352    0.00000   -0.00986
 53 Cu   -0.00653    0.00000    0.00164
 54 Cu   -0.00652   -0.00000    0.00164
 55 Cu   -0.01352    0.00000   -0.00980
 56 Cu   -0.01263    0.00000    0.01109
 57 Cu   -0.01362   -0.00001   -0.00384
 58 Cu   -0.01362    0.00001   -0.00383
 59 Cu   -0.01263    0.00000    0.01109
 60 Cu   -0.00297    0.00000    0.00231
 61 Cu   -0.00099    0.00000    0.01037
 62 Cu   -0.00099    0.00000    0.01038
 63 Cu   -0.00298    0.00000    0.00232
 64 Cu   -0.00477    0.00000   -0.00326
 65 Cu    0.00123   -0.00000   -0.00266
 66 Cu    0.00123    0.00000   -0.00266
 67 Cu   -0.00477    0.00000   -0.00327
 68 Cu   -0.00498    0.00000    0.00568
 69 Cu   -0.00360   -0.00000   -0.00115
 70 Cu   -0.00360   -0.00000   -0.00115
 71 Cu   -0.00498    0.00000    0.00568
 72 Cu    0.00203    0.00000   -0.00143
 73 Cu    0.00450   -0.00000   -0.00573
 74 Cu    0.00451    0.00000   -0.00573
 75 Cu    0.00203    0.00000   -0.00143
 76 Cu   -0.00425    0.00000    0.00259
 77 Cu    0.00622   -0.00000    0.00118
 78 Cu    0.00622    0.00000    0.00117
 79 Cu   -0.00425    0.00000    0.00260
 80 Cu    0.00117    0.00000   -0.01064
 81 Cu    0.00231   -0.00000    0.00152
 82 Cu    0.00231    0.00000    0.00152
 83 Cu    0.00117    0.00000   -0.01064
 84 Cu    0.01629    0.00000    0.00534
 85 Cu    0.01397   -0.00000   -0.01267
 86 Cu    0.01397    0.00000   -0.01267
 87 Cu    0.01629    0.00000    0.00534
 88 Cu    0.00598    0.00000   -0.00416
 89 Cu    0.01577    0.00000   -0.00648
 90 Cu    0.01577   -0.00000   -0.00649
 91 Cu    0.00598    0.00000   -0.00416
 92 Cu    0.01593    0.00000    0.01711
 93 Cu    0.01153   -0.00000   -0.01820
 94 Cu    0.01153    0.00000   -0.01819
 95 Cu    0.01594    0.00000    0.01710
 96 Cl    0.00193    0.00000    0.01278
 97 Cl   -0.00549    0.00000    0.00047
 98 Cl    0.00193    0.00000    0.01278
 99 Cl    0.00193    0.00000    0.01278
100 Cl   -0.00549   -0.00000    0.00047
101 Cl    0.00193    0.00000    0.01278
102 Cl   -0.00549   -0.00000    0.00046
103 Cl   -0.00549    0.00000    0.00046
104 Cl    0.00208    0.00000    0.01667
105 Cl    0.00208    0.00000    0.01672
106 Cl    0.00094    0.00000   -0.02028
107 Cl    0.00094   -0.00000   -0.02028
108 Cl    0.00209    0.00000    0.01671
109 Cl    0.00208    0.00000    0.01674
110 Cl    0.00093    0.00000   -0.02028
111 Cl    0.00093   -0.00000   -0.02028

Timing:                                      incl.     excl.
-------------------------------------------------------------------
Density initialized from wave functions:   442.307   436.291   0.3% |
 Symmetrize density:                         6.016     6.016   0.0% |
Forces:                                   2914.931  2914.931   1.9% ||
Hamiltonian:                               723.860     1.148   0.0% |
 Atomic:                                    28.643     2.590   0.0% |
  XC Correction:                            26.054    26.054   0.0% |
 Calculate atomic Hamiltonians:            228.696   228.696   0.2% |
 Communicate:                                9.597     9.597   0.0% |
 Initialize Hamiltonian:                     0.002     0.002   0.0% |
 Poisson:                                    0.324     0.324   0.0% |
 XC 3D grid:                               455.450    56.033   0.0% |
  VdW-DF integral:                         399.417     2.953   0.0% |
   Convolution:                             40.483    40.483   0.0% |
   FFT:                                     14.284    14.284   0.0% |
   gather:                                 120.262   120.262   0.1% |
   hmm1:                                    18.772    18.772   0.0% |
   hmm2:                                    19.113    19.113   0.0% |
   iFFT:                                    14.676    14.676   0.0% |
   potential:                              161.211     1.739   0.0% |
    collect:                                20.103    20.103   0.0% |
    p1:                                     80.996    80.996   0.1% |
    p2:                                     30.279    30.279   0.0% |
    sum:                                    28.093    28.093   0.0% |
   splines:                                  7.664     7.664   0.0% |
LCAO initialization:                       596.073     0.643   0.0% |
 LCAO eigensolver:                          15.549     0.004   0.0% |
  Blacs Orbital Layouts:                     2.381     0.002   0.0% |
   General diagonalize:                      2.325     2.325   0.0% |
   Redistribute coefs:                       0.023     0.023   0.0% |
   Send coefs to domains:                    0.031     0.031   0.0% |
  Calculate projections:                     0.035     0.035   0.0% |
  Distribute overlap matrix:                12.684     0.001   0.0% |
   Scalapack redistribute:                   0.050     0.050   0.0% |
   blocked summation:                       12.633    12.633   0.0% |
  Potential matrix:                          0.201     0.201   0.0% |
  SparseAtomicCorrection:                    0.032     0.032   0.0% |
  Sum over cells:                            0.212     0.212   0.0% |
 LCAO to grid:                             575.993   575.993   0.4% |
 Set positions (LCAO WFS):                   3.888     0.053   0.0% |
  Basic WFS set positions:                   0.014     0.014   0.0% |
  Basis functions set positions:             0.001     0.001   0.0% |
  P tci:                                     0.043     0.043   0.0% |
  ST tci:                                    0.642     0.642   0.0% |
  Scalapack redistribute:                    0.058     0.058   0.0% |
  blocked summation:                         2.693     2.693   0.0% |
  mktci:                                     0.386     0.386   0.0% |
PWDescriptor:                                0.964     0.964   0.0% |
Redistribute:                                0.063     0.063   0.0% |
SCF-cycle:                               144302.925   143.559   0.1% |
 Davidson:                               121315.904 38848.312  25.9% |---------|
  Apply H:                                7433.930  7298.564   4.9% |-|
   HMM T:                                  135.365   135.365   0.1% |
  Subspace diag:                         18125.149     0.230   0.0% |
   calc_h_matrix:                        11068.570  3731.635   2.5% ||
    Apply H:                              7336.935  7192.832   4.8% |-|
     HMM T:                                144.104   144.104   0.1% |
   diagonalize:                            573.958   573.958   0.4% |
   rotate_psi:                            6482.391  6482.391   4.3% |-|
  calc. matrices:                        40021.412 25826.324  17.2% |------|
   Apply H:                              14195.088 13924.791   9.3% |---|
    HMM T:                                 270.297   270.297   0.2% |
  diagonalize:                            4090.685  4090.685   2.7% ||
  rotate_psi:                            12796.417 12796.417   8.5% |--|
 Density:                                 8527.194     0.053   0.0% |
  Atomic density matrices:                  24.911    24.911   0.0% |
  Mix:                                    4693.982  4693.982   3.1% ||
  Multipole moments:                         1.226     1.226   0.0% |
  Pseudo density:                         3807.023  3692.908   2.5% ||
   Symmetrize density:                     114.115   114.115   0.1% |
 Hamiltonian:                            13557.211    21.305   0.0% |
  Atomic:                                  544.957    53.412   0.0% |
   XC Correction:                          491.545   491.545   0.3% |
  Calculate atomic Hamiltonians:          4351.811  4351.811   2.9% ||
  Communicate:                             171.119   171.119   0.1% |
  Poisson:                                   5.961     5.961   0.0% |
  XC 3D grid:                             8462.057  1058.839   0.7% |
   VdW-DF integral:                       7403.218    55.608   0.0% |
    Convolution:                           745.735   745.735   0.5% |
    FFT:                                   271.504   271.504   0.2% |
    gather:                               2322.555  2322.555   1.6% ||
    hmm1:                                  352.975   352.975   0.2% |
    hmm2:                                  351.518   351.518   0.2% |
    iFFT:                                  271.495   271.495   0.2% |
    potential:                            3031.814    31.537   0.0% |
     collect:                              382.278   382.278   0.3% |
     p1:                                  1511.842  1511.842   1.0% |
     p2:                                   556.767   556.767   0.4% |
     sum:                                  549.390   549.390   0.4% |
    splines:                                 0.014     0.014   0.0% |
 Orthonormalize:                           759.055     0.022   0.0% |
  calc_s_matrix:                            94.662    94.662   0.1% |
  inverse-cholesky:                         26.439    26.439   0.0% |
  projections:                             476.509   476.509   0.3% |
  rotate_psi_s:                            161.424   161.424   0.1% |
Set symmetry:                                0.003     0.003   0.0% |
Other:                                     769.595   769.595   0.5% |
-------------------------------------------------------------------
Total:                                             149750.720 100.0%

Memory usage: 1.92 GiB
Date: Fri Oct 14 10:15:43 2022
