
  ___ ___ ___ _ _ _  
 |   |   |_  | | | | 
 | | | | | . | | | | 
 |__ |  _|___|_____|  22.1.0
 |___|_|             

User:   thorkong@node033.cluster
Date:   Mon Oct 17 14:44:19 2022
Arch:   x86_64
Pid:    27008
Python: 3.10.5
gpaw:   /groups/kemi/thorkong/miniconda3/envs/gpaw22/lib/python3.10/site-packages/gpaw
_gpaw:  /groups/kemi/thorkong/miniconda3/envs/gpaw22/lib/python3.10/site-packages/
        _gpaw.cpython-310-x86_64-linux-gnu.so
ase:    /groups/kemi/thorkong/miniconda3/envs/gpaw22/lib/python3.10/site-packages/ase (version 3.22.1)
numpy:  /groups/kemi/thorkong/miniconda3/envs/gpaw22/lib/python3.10/site-packages/numpy (version 1.23.0)
scipy:  /groups/kemi/thorkong/miniconda3/envs/gpaw22/lib/python3.10/site-packages/scipy (version 1.8.1)
libxc:  5.2.3
units:  Angstrom and eV
cores: 32
OpenMP: True
OMP_NUM_THREADS: 1

Input parameters:
  basis: dzp
  kpts: [4 4 1]
  mode: {ecut: 600.0,
         name: pw}
  xc: BEEF-vdW

System changes: positions, numbers, cell, pbc, initial_charges, initial_magmoms 

Initialize ...

Cu-setup:
  name: Copper
  id: f1c4d45d90492f1bbfdcb091e8418fdf
  Z: 29.0
  valence: 11
  core: 18
  charge: 0.0
  file: /groups/kemi/thorkong/miniconda3/envs/gpaw22/share/gpaw/Cu.PBE.gz
  compensation charges: gauss, rc=0.33, lmax=2
  cutoffs: 2.06(filt), 2.43(core),
  valence states:
                energy  radius
    4s(1.00)    -4.609   1.164
    4p(0.00)    -0.698   1.164
    3d(10.00)    -5.039   1.058
    *s          22.603   1.164
    *p          26.513   1.164
    *d          22.172   1.058

  LCAO basis set for Cu:
    Name: dzp
    File: /groups/kemi/thorkong/miniconda3/envs/gpaw22/share/gpaw/Cu.dzp.basis.gz
    Number of radial functions: 5
    Number of spherical harmonics: 15
      l=0, rc=8.9688 Bohr: 4s-sz confined orbital
      l=2, rc=5.1719 Bohr: 3d-sz confined orbital
      l=0, rc=5.3281 Bohr: 4s-dz split-valence wave
      l=2, rc=3.1406 Bohr: 3d-dz split-valence wave
      l=1, rc=8.9688 Bohr: p-type Gaussian polarization

Cl-setup:
  name: Chlorine
  id: 726897f06f34e53cf8e33b5885a02604
  Z: 17.0
  valence: 7
  core: 10
  charge: 0.0
  file: /groups/kemi/thorkong/miniconda3/envs/gpaw22/share/gpaw/Cl.PBE.gz
  compensation charges: gauss, rc=0.25, lmax=2
  cutoffs: 1.40(filt), 1.49(core),
  valence states:
                energy  radius
    3s(2.00)   -20.689   0.794
    3p(5.00)    -8.594   0.794
    *s           6.523   0.794
    *p          18.617   0.794
    *d           0.000   0.794

  LCAO basis set for Cl:
    Name: dzp
    File: /groups/kemi/thorkong/miniconda3/envs/gpaw22/share/gpaw/Cl.dzp.basis.gz
    Number of radial functions: 5
    Number of spherical harmonics: 13
      l=0, rc=5.1719 Bohr: 3s-sz confined orbital
      l=1, rc=6.2656 Bohr: 3p-sz confined orbital
      l=0, rc=2.8281 Bohr: 3s-dz split-valence wave
      l=1, rc=3.5156 Bohr: 3p-dz split-valence wave
      l=2, rc=6.2656 Bohr: d-type Gaussian polarization

Reference energy: -2581817.792169

Spin-paired calculation

Convergence criteria:
 Maximum [total energy] change in last 3 cyles: 0.0005 eV / electron
 Maximum integral of absolute [dens]ity change: 0.0001 electrons / valence electron
 Maximum integral of absolute [eigenst]ate change: 4e-08 eV^2 / valence electron
 Maximum number of scf [iter]ations: 333
 (Square brackets indicate name in SCF output, whereas a 'c' in
 the SCF output indicates the quantity has converged.)

Symmetries present (total): 1

  ( 1  0  0)
  ( 0  1  0)
  ( 0  0  1)

16 k-points: 4 x 4 x 1 Monkhorst-Pack grid
8 k-points in the irreducible part of the Brillouin zone
       k-points in crystal coordinates                weights
   0:     0.12500000   -0.37500000    0.00000000          2/16
   1:     0.12500000   -0.12500000    0.00000000          2/16
   2:     0.12500000    0.12500000    0.00000000          2/16
   3:     0.12500000    0.37500000    0.00000000          2/16
   4:     0.37500000   -0.37500000    0.00000000          2/16
   5:     0.37500000   -0.12500000    0.00000000          2/16
   6:     0.37500000    0.12500000    0.00000000          2/16
   7:     0.37500000    0.37500000    0.00000000          2/16

Wave functions: Plane wave expansion
  Cutoff energy: 600.000 eV
  Number of coefficients (min, max): 63070, 63184
  Pulay-stress correction: 0.000000 eV/Ang^3 (de/decut=0.000000)
  Using FFTW library
  ScaLapack parameters: grid=2x2, blocksize=64
  Wavefunction extrapolation:
    Improved wavefunction reuse through dual PAW basis 

Occupation numbers: Fermi-Dirac: width=0.1000 eV
 

Eigensolver
   Davidson(niter=2) 

Densities:
  Coarse grid: 45*48*175 grid
  Fine grid: 90*96*350 grid
  Total Charge: 0.000000 

Density mixing:
  Method: separate
  Backend: pulay
  Linear mixing parameter: 0.05
  Mixing with 5 old densities
  Damping of long wave oscillations: 50 

Hamiltonian:
  XC and Coulomb potentials evaluated on a 90*96*350 grid
  Using the BEEF-vdW Exchange-Correlation functional
  External potential:
    NoExternalPotential
 

XC parameters: BEEF-vdW with 2 nearest neighbor stencil

Memory estimate:
  Process memory now: 252.85 MiB
  Calculator: 902.01 MiB
    Density: 47.05 MiB
      Arrays: 18.85 MiB
      Localized functions: 20.94 MiB
      Mixer: 7.25 MiB
    Hamiltonian: 12.84 MiB
      Arrays: 12.33 MiB
      XC: 0.00 MiB
      Poisson: 0.00 MiB
      vbar: 0.51 MiB
    Wavefunctions: 842.13 MiB
      Arrays psit_nG: 396.25 MiB
      Eigensolver: 426.86 MiB
      Projections: 1.77 MiB
      Projectors: 2.41 MiB
      PW-descriptor: 14.84 MiB

Total number of cores used: 32
Parallelization over k-points: 8
Domain decomposition: 1 x 1 x 4
                      2 x 2 x 8 (xc only)

Number of atoms: 66
Number of atomic orbitals: 966
Number of bands in calculation: 411
Number of valence electrons: 678
Bands to converge: occupied

... initialized

Initializing position-dependent things.

Density initialized from atomic densities
Creating initial wave functions:
  411 bands from LCAO basis set

                                     
                                     
                                     
                                     
            Cl          Cl           
                                     
                Cl                   
        Cl Cu  ClCu  Cl Cu           
                                     
         Cu    Cu    CCu    Cu       
       Cu    Cu    Cu     Cu         
              Cu    Cu               
           Cu    CCu    Cu           
         Cu    Cu    CCu    Cu       
                                     
       Cu    CCu   CCu    Cu         
           Cu    CCu   CCu           
                                     
         Cu    Cu    CCu    Cu       
             Cu     Cu    Cu         
       Cu     Cu    Cu               
           Cu Cl  CuCl  Cu Cl        
                                     
                   Cl                
          Cl           Cl            
                                     
                                     
                                     
                                     

Positions:
   0 Cu     1.851874    1.842086   10.044767    ( 0.0000,  0.0000,  0.0000)
   1 Cu     0.572048    0.518337   11.854739    ( 0.0000,  0.0000,  0.0000)
   2 Cu     3.208369    0.549454   11.826759    ( 0.0000,  0.0000,  0.0000)
   3 Cu     1.885044    1.836608   13.699605    ( 0.0000,  0.0000,  0.0000)
   4 Cu     0.579320    0.526826   15.560947    ( 0.0000,  0.0000,  0.0000)
   5 Cu     3.185437    0.522508   15.555968    ( 0.0000,  0.0000,  0.0000)
   6 Cu     1.901068    1.854575   17.424612    ( 0.0000,  0.0000,  0.0000)
   7 Cu     0.575906    0.561899   19.206760    ( 0.0000,  0.0000,  0.0000)
   8 Cu     3.188310    0.488633   19.210481    ( 0.0000,  0.0000,  0.0000)
   9 Cu     0.574574    3.144633   11.846476    ( 0.0000,  0.0000,  0.0000)
  10 Cu     0.575916    3.143785   15.552326    ( 0.0000,  0.0000,  0.0000)
  11 Cu     0.546349    3.145891   19.206137    ( 0.0000,  0.0000,  0.0000)
  12 Cu     7.147069    1.821677   10.043621    ( 0.0000,  0.0000,  0.0000)
  13 Cu     5.794000    0.540777   11.820405    ( 0.0000,  0.0000,  0.0000)
  14 Cu     7.114080    1.831917   13.694773    ( 0.0000,  0.0000,  0.0000)
  15 Cu     5.808982    0.523918   15.556714    ( 0.0000,  0.0000,  0.0000)
  16 Cu     7.113100    1.827061   17.396972    ( 0.0000,  0.0000,  0.0000)
  17 Cu     5.807880    0.526790   19.217827    ( 0.0000,  0.0000,  0.0000)
  18 Cu     4.494064    1.763231    9.932089    ( 0.0000,  0.0000,  0.0000)
  19 Cu     4.496146    4.525263    9.931071    ( 0.0000,  0.0000,  0.0000)
  20 Cu     3.207669    3.147945   11.830838    ( 0.0000,  0.0000,  0.0000)
  21 Cu     5.791432    3.139321   11.831411    ( 0.0000,  0.0000,  0.0000)
  22 Cu     4.501104    1.833097   13.705422    ( 0.0000,  0.0000,  0.0000)
  23 Cu     4.500286    4.451342   13.700374    ( 0.0000,  0.0000,  0.0000)
  24 Cu     3.191019    3.143173   15.550169    ( 0.0000,  0.0000,  0.0000)
  25 Cu     5.806714    3.142761   15.552225    ( 0.0000,  0.0000,  0.0000)
  26 Cu     4.483820    1.848780   17.430757    ( 0.0000,  0.0000,  0.0000)
  27 Cu     4.483576    4.446716   17.420218    ( 0.0000,  0.0000,  0.0000)
  28 Cu     3.195113    3.070202   19.320757    ( 0.0000,  0.0000,  0.0000)
  29 Cu     5.840799    3.127025   19.209886    ( 0.0000,  0.0000,  0.0000)
  30 Cu     1.850636    4.467419   10.041562    ( 0.0000,  0.0000,  0.0000)
  31 Cu     1.883456    7.067453   10.032493    ( 0.0000,  0.0000,  0.0000)
  32 Cu     0.578168    5.767618   11.853682    ( 0.0000,  0.0000,  0.0000)
  33 Cu     3.207330    5.746015   11.820678    ( 0.0000,  0.0000,  0.0000)
  34 Cu     1.884398    4.451712   13.698510    ( 0.0000,  0.0000,  0.0000)
  35 Cu     1.882140    7.070634   13.694193    ( 0.0000,  0.0000,  0.0000)
  36 Cu     0.577138    5.762455   15.555937    ( 0.0000,  0.0000,  0.0000)
  37 Cu     3.190200    5.761333   15.545038    ( 0.0000,  0.0000,  0.0000)
  38 Cu     1.899950    4.455283   17.419419    ( 0.0000,  0.0000,  0.0000)
  39 Cu     1.897387    7.053708   17.430112    ( 0.0000,  0.0000,  0.0000)
  40 Cu     0.544416    5.772752   19.207193    ( 0.0000,  0.0000,  0.0000)
  41 Cu     3.197353    5.832220   19.317966    ( 0.0000,  0.0000,  0.0000)
  42 Cu     7.144990    4.448863   10.045121    ( 0.0000,  0.0000,  0.0000)
  43 Cu     7.115261    7.033008   10.044024    ( 0.0000,  0.0000,  0.0000)
  44 Cu     5.790284    5.740371   11.826573    ( 0.0000,  0.0000,  0.0000)
  45 Cu     7.115409    4.450638   13.698320    ( 0.0000,  0.0000,  0.0000)
  46 Cu     7.111993    7.067752   13.689826    ( 0.0000,  0.0000,  0.0000)
  47 Cu     5.806194    5.757852   15.551058    ( 0.0000,  0.0000,  0.0000)
  48 Cu     7.116689    4.449777   17.404260    ( 0.0000,  0.0000,  0.0000)
  49 Cu     7.119110    7.076103   17.395949    ( 0.0000,  0.0000,  0.0000)
  50 Cu     5.839650    5.752596   19.206190    ( 0.0000,  0.0000,  0.0000)
  51 Cu     4.502840    7.106124   10.040718    ( 0.0000,  0.0000,  0.0000)
  52 Cu     4.505854    7.072213   13.694900    ( 0.0000,  0.0000,  0.0000)
  53 Cu     4.482985    7.045347   17.423899    ( 0.0000,  0.0000,  0.0000)
  54 Cl     3.111134    4.453599   21.202893    ( 0.0000,  0.0000,  0.0000)
  55 Cl     4.580310    3.143724    8.048163    ( 0.0000,  0.0000,  0.0000)
  56 Cl     1.867046    5.767436    8.237027    ( 0.0000,  0.0000,  0.0000)
  57 Cl     0.561128    1.853895   21.006449    ( 0.0000,  0.0000,  0.0000)
  58 Cl     5.840224    7.039810   21.008038    ( 0.0000,  0.0000,  0.0000)
  59 Cl     7.093286    0.367959    8.057112    ( 0.0000,  0.0000,  0.0000)
  60 Cl     7.130126    5.740935    8.244573    ( 0.0000,  0.0000,  0.0000)
  61 Cl     5.824339    1.826908   21.013856    ( 0.0000,  0.0000,  0.0000)
  62 Cl     0.561128    7.353895   21.006449    ( 0.0000,  0.0000,  0.0000)
  63 Cl     1.699919    0.405738    8.070012    ( 0.0000,  0.0000,  0.0000)
  64 Cl     4.498586    5.754186    8.240800    ( 0.0000,  0.0000,  0.0000)
  65 Cl     3.192734    1.840401   21.010153    ( 0.0000,  0.0000,  0.0000)

Unit cell:
           periodic     x           y           z      points  spacing
  1. axis:    yes    7.851007    0.000000    0.000000    45     0.1655
  2. axis:    yes    2.617002    7.851007    0.000000    48     0.1636
  3. axis:    yes    0.000000    0.000000   30.683867   175     0.1753

  Lengths:   7.851007   8.275688  30.683867
  Angles:   90.000000  90.000000  71.565053

Effective grid spacing dv^(1/3) = 0.1710

     iter     time        total  log10-change:
                         energy  eigst   dens
iter:   1 14:49:59 -4843.293206
iter:   2 14:51:26 -4630.292012  +0.66  -0.76
iter:   3 14:52:42 -4540.271254  -0.44  -1.09
iter:   4 14:53:37 -4523.356787  -1.56  -1.31
iter:   5 14:54:33 -4525.434389  -1.72  -1.46
iter:   6 14:55:28 -4518.143510  -2.02  -1.47
iter:   7 14:56:23 -4517.665474  -2.11  -1.60
iter:   8 14:57:19 -4516.938330  -2.82  -1.70
iter:   9 14:58:15 -4517.844147  -2.70  -1.76
iter:  10 14:59:10 -4516.624033  -3.32  -1.77
iter:  11 15:00:19 -4517.405358  -2.58  -1.92
iter:  12 15:01:15 -4516.417954  -3.65  -1.90
iter:  13 15:02:11 -4516.118076  -4.25  -1.98
iter:  14 15:03:21 -4515.468526  -3.01  -2.04
iter:  15 15:04:20 -4515.342507  -2.73  -2.24
iter:  16 15:05:16 -4515.269235c -3.88  -2.60
iter:  17 15:06:12 -4515.220730c -4.08  -2.68
iter:  18 15:07:08 -4515.206773c -4.21  -2.80
iter:  19 15:08:05 -4515.205867c -4.57  -2.93
iter:  20 15:09:01 -4515.205670c -4.66  -2.99
iter:  21 15:09:58 -4515.203352c -4.25  -3.01
iter:  22 15:10:54 -4515.199252c -5.17  -3.21
iter:  23 15:11:51 -4515.197494c -4.95  -3.37
iter:  24 15:12:48 -4515.197096c -5.92  -3.48
iter:  25 15:13:44 -4515.197179c -6.08  -3.70
iter:  26 15:14:40 -4515.196544c -6.59  -3.78
iter:  27 15:15:37 -4515.196200c -6.36  -3.90
iter:  28 15:16:33 -4515.196057c -7.07  -4.04c
iter:  29 15:17:30 -4515.196094c -7.05  -4.17c
iter:  30 15:18:27 -4515.196179c -7.49c -4.28c

Converged after 30 iterations.

Dipole moment: (-4.457650, -39.881009, 0.032047) |e|*Ang

Energy contributions relative to reference atoms: (reference = -2581817.792169)

Kinetic:       +607.121430
Potential:     -610.452720
External:        +0.000000
XC:            -4510.625624
Entropy (-ST):   -0.818791
Local:           -0.829870
--------------------------
Free energy:   -4515.605575
Extrapolated:  -4515.196179

Showing only first 2 kpts
 Kpt  Band  Eigenvalues  Occupancy
  0   337     -0.17274    1.68251
  0   338     -0.12375    1.52905
  0   339     -0.00734    1.00681
  0   340      0.01847    0.87835

  1   337     -0.13329    1.56254
  1   338     -0.03965    1.16677
  1   339      0.07239    0.62707
  1   340      0.15171    0.34246


Fermi level: -0.00598

No gap

Forces in eV/Ang:
  0 Cu    0.16944    0.12722   -0.37572
  1 Cu   -0.00991   -0.06616    0.21709
  2 Cu    0.05538   -0.10921    0.08593
  3 Cu    0.01698   -0.00827    0.02785
  4 Cu    0.00881    0.01369   -0.05231
  5 Cu    0.00552    0.00199   -0.00970
  6 Cu    0.02177   -0.05375   -0.34236
  7 Cu    0.01900   -0.74888   -0.48427
  8 Cu   -0.21292    0.03245   -1.10917
  9 Cu   -0.02604   -0.00678   -0.06239
 10 Cu   -0.00697   -0.01638   -0.04531
 11 Cu    0.06191    0.86613   -0.45606
 12 Cu   -0.18935    0.07432   -0.40959
 13 Cu   -0.04726   -0.09420    0.08582
 14 Cu   -0.02042    0.00026    0.05886
 15 Cu   -0.01733   -0.00790   -0.01723
 16 Cu   -0.05937   -0.05441   -0.36252
 17 Cu    0.21322    0.52407   -2.95565
 18 Cu    0.00151    0.22292   -0.16403
 19 Cu   -0.01772   -1.52385    1.81928
 20 Cu   -0.03166    0.03101   -0.08316
 21 Cu    0.04730    0.06207   -0.08055
 22 Cu    0.00123    0.01589    0.07714
 23 Cu   -0.02328   -0.01500   -0.00404
 24 Cu    0.02173    0.01843    0.00359
 25 Cu   -0.00865    0.01068   -0.03553
 26 Cu    0.04800   -0.10002   -0.31180
 27 Cu    0.03450   -0.02446    0.07112
 28 Cu    0.02481    1.51389   -1.86693
 29 Cu   -0.08009    0.74668   -0.31943
 30 Cu    0.08054   -0.73469    0.29967
 31 Cu   -0.17961    0.50354    1.10228
 32 Cu    0.04972    0.05591    0.35859
 33 Cu   -0.04308    0.10086    0.30827
 34 Cu    0.00657   -0.00906    0.02333
 35 Cu    0.01456    0.01138    0.02993
 36 Cu    0.02232    0.00068   -0.04632
 37 Cu   -0.00651   -0.01790   -0.07299
 38 Cu   -0.04580   -0.05180    0.08884
 39 Cu    0.07413    0.08283   -0.11796
 40 Cu    0.20956   -0.22700    0.28386
 41 Cu   -0.02388   -0.30125    0.18278
 42 Cu   -0.05936   -0.82979    0.45161
 43 Cu   -0.01053    0.78884    0.44974
 44 Cu   -0.01813    0.05515    0.33020
 45 Cu    0.00999    0.01856    0.04378
 46 Cu   -0.01005   -0.01430    0.05343
 47 Cu   -0.01246    0.00202   -0.00929
 48 Cu    0.01505    0.01493    0.05208
 49 Cu   -0.00146    0.05908   -0.29817
 50 Cu   -0.18226   -0.63855   -0.15129
 51 Cu    0.22941    0.33506    0.78583
 52 Cu   -0.00241    0.00086    0.02182
 53 Cu   -0.07281    0.10898   -0.14687
 54 Cl   -0.13759    2.62817    0.05209
 55 Cl    0.04887   -2.37936   -0.08766
 56 Cl    0.30363   -3.69487   -1.10389
 57 Cl    0.24387    0.08820    1.27106
 58 Cl   -2.55311   -2.65339    1.01273
 59 Cl   -3.29674    3.83050   -0.31894
 60 Cl   -0.23054   -0.16496   -1.24137
 61 Cl   -0.24344    5.04984    1.50018
 62 Cl    2.53077   -5.82230    2.04418
 63 Cl    3.14149    3.07562   -0.19165
 64 Cl    0.01064    0.30700   -2.22952
 65 Cl    0.13681   -1.02085    2.37899

System changes: positions 

Initializing position-dependent things.

Density initialized from wave functions
                                     
                                     
                                     
                                     
            Cl          Cl           
                Cl                   
                                     
        Cl Cu  ClCu  Cl Cu           
               Cu    Cu     Cu       
         Cu    Cu     Cu             
             Cu    Cu     Cu         
       Cu     Cu    Cu               
           Cu    CCu    Cu           
         Cu    Cu    CCu    Cu       
                                     
       Cu    CCu    Cu    Cu         
           Cu    CCu    Cu           
               Cu    Cu     Cu       
         Cu    Cu     Cu             
             Cu     Cu    Cu         
       Cu     Cu    Cu               
           Cu Cl  CuCl  Cu Cl        
                                     
                   Cl                
          Cl           Cl            
                                     
                                     
                                     
                                     

Positions:
   0 Cu     1.856955    1.845901   10.033500    ( 0.0000,  0.0000,  0.0000)
   1 Cu     0.571751    0.516353   11.861249    ( 0.0000,  0.0000,  0.0000)
   2 Cu     3.210030    0.546179   11.829336    ( 0.0000,  0.0000,  0.0000)
   3 Cu     1.885553    1.836360   13.700440    ( 0.0000,  0.0000,  0.0000)
   4 Cu     0.579584    0.527237   15.559378    ( 0.0000,  0.0000,  0.0000)
   5 Cu     3.185602    0.522568   15.555677    ( 0.0000,  0.0000,  0.0000)
   6 Cu     1.901721    1.852963   17.414346    ( 0.0000,  0.0000,  0.0000)
   7 Cu     0.576476    0.539442   19.192238    ( 0.0000,  0.0000,  0.0000)
   8 Cu     3.181925    0.489606   19.177220    ( 0.0000,  0.0000,  0.0000)
   9 Cu     0.573793    3.144430   11.844605    ( 0.0000,  0.0000,  0.0000)
  10 Cu     0.575707    3.143294   15.550967    ( 0.0000,  0.0000,  0.0000)
  11 Cu     0.548206    3.171864   19.192461    ( 0.0000,  0.0000,  0.0000)
  12 Cu     7.141391    1.823906   10.031339    ( 0.0000,  0.0000,  0.0000)
  13 Cu     5.792583    0.537952   11.822978    ( 0.0000,  0.0000,  0.0000)
  14 Cu     7.113468    1.831925   13.696538    ( 0.0000,  0.0000,  0.0000)
  15 Cu     5.808462    0.523681   15.556197    ( 0.0000,  0.0000,  0.0000)
  16 Cu     7.111320    1.825430   17.386101    ( 0.0000,  0.0000,  0.0000)
  17 Cu     5.814274    0.542505   19.129196    ( 0.0000,  0.0000,  0.0000)
  18 Cu     4.494109    1.769916    9.927170    ( 0.0000,  0.0000,  0.0000)
  19 Cu     4.495615    4.479567    9.985626    ( 0.0000,  0.0000,  0.0000)
  20 Cu     3.206720    3.148875   11.828344    ( 0.0000,  0.0000,  0.0000)
  21 Cu     5.792851    3.141182   11.828996    ( 0.0000,  0.0000,  0.0000)
  22 Cu     4.501141    1.833574   13.707735    ( 0.0000,  0.0000,  0.0000)
  23 Cu     4.499588    4.450892   13.700253    ( 0.0000,  0.0000,  0.0000)
  24 Cu     3.191671    3.143726   15.550277    ( 0.0000,  0.0000,  0.0000)
  25 Cu     5.806455    3.143081   15.551159    ( 0.0000,  0.0000,  0.0000)
  26 Cu     4.485259    1.845781   17.421407    ( 0.0000,  0.0000,  0.0000)
  27 Cu     4.484610    4.445982   17.422351    ( 0.0000,  0.0000,  0.0000)
  28 Cu     3.195857    3.115599   19.264773    ( 0.0000,  0.0000,  0.0000)
  29 Cu     5.838397    3.149416   19.200307    ( 0.0000,  0.0000,  0.0000)
  30 Cu     1.853051    4.445388   10.050548    ( 0.0000,  0.0000,  0.0000)
  31 Cu     1.878070    7.082553   10.065547    ( 0.0000,  0.0000,  0.0000)
  32 Cu     0.579659    5.769295   11.864435    ( 0.0000,  0.0000,  0.0000)
  33 Cu     3.206038    5.749040   11.829922    ( 0.0000,  0.0000,  0.0000)
  34 Cu     1.884595    4.451440   13.699210    ( 0.0000,  0.0000,  0.0000)
  35 Cu     1.882577    7.070975   13.695091    ( 0.0000,  0.0000,  0.0000)
  36 Cu     0.577807    5.762475   15.554548    ( 0.0000,  0.0000,  0.0000)
  37 Cu     3.190005    5.760796   15.542849    ( 0.0000,  0.0000,  0.0000)
  38 Cu     1.898577    4.453730   17.422083    ( 0.0000,  0.0000,  0.0000)
  39 Cu     1.899610    7.056192   17.426575    ( 0.0000,  0.0000,  0.0000)
  40 Cu     0.550700    5.765945   19.215705    ( 0.0000,  0.0000,  0.0000)
  41 Cu     3.196637    5.823186   19.323447    ( 0.0000,  0.0000,  0.0000)
  42 Cu     7.143210    4.423980   10.058663    ( 0.0000,  0.0000,  0.0000)
  43 Cu     7.114945    7.056663   10.057510    ( 0.0000,  0.0000,  0.0000)
  44 Cu     5.789740    5.742025   11.836475    ( 0.0000,  0.0000,  0.0000)
  45 Cu     7.115709    4.451194   13.699633    ( 0.0000,  0.0000,  0.0000)
  46 Cu     7.111692    7.067323   13.691428    ( 0.0000,  0.0000,  0.0000)
  47 Cu     5.805820    5.757912   15.550779    ( 0.0000,  0.0000,  0.0000)
  48 Cu     7.117140    4.450225   17.405822    ( 0.0000,  0.0000,  0.0000)
  49 Cu     7.119066    7.077875   17.387008    ( 0.0000,  0.0000,  0.0000)
  50 Cu     5.834185    5.733448   19.201653    ( 0.0000,  0.0000,  0.0000)
  51 Cu     4.509719    7.116172   10.064283    ( 0.0000,  0.0000,  0.0000)
  52 Cu     4.505782    7.072239   13.695554    ( 0.0000,  0.0000,  0.0000)
  53 Cu     4.480802    7.048615   17.419495    ( 0.0000,  0.0000,  0.0000)
  54 Cl     3.107008    4.532410   21.204455    ( 0.0000,  0.0000,  0.0000)
  55 Cl     4.581776    3.072374    8.045534    ( 0.0000,  0.0000,  0.0000)
  56 Cl     1.876151    5.656638    8.203925    ( 0.0000,  0.0000,  0.0000)
  57 Cl     0.568440    1.856540   21.044564    ( 0.0000,  0.0000,  0.0000)
  58 Cl     5.763664    6.960243   21.038407    ( 0.0000,  0.0000,  0.0000)
  59 Cl     6.994426    0.482824    8.047548    ( 0.0000,  0.0000,  0.0000)
  60 Cl     7.123212    5.735989    8.207347    ( 0.0000,  0.0000,  0.0000)
  61 Cl     5.817040    1.978338   21.058842    ( 0.0000,  0.0000,  0.0000)
  62 Cl     0.637018    7.179301   21.067747    ( 0.0000,  0.0000,  0.0000)
  63 Cl     1.794123    0.497967    8.064265    ( 0.0000,  0.0000,  0.0000)
  64 Cl     4.498905    5.763392    8.173943    ( 0.0000,  0.0000,  0.0000)
  65 Cl     3.196836    1.809789   21.081492    ( 0.0000,  0.0000,  0.0000)

Unit cell:
           periodic     x           y           z      points  spacing
  1. axis:    yes    7.851007    0.000000    0.000000    45     0.1655
  2. axis:    yes    2.617002    7.851007    0.000000    48     0.1636
  3. axis:    yes    0.000000    0.000000   30.683867   175     0.1753

  Lengths:   7.851007   8.275688  30.683867
  Angles:   90.000000  90.000000  71.565053

Effective grid spacing dv^(1/3) = 0.1710

     iter     time        total  log10-change:
                         energy  eigst   dens
iter:   1 15:19:55 -4522.977541  -1.36
iter:   2 15:20:51 -4520.640258  -2.17  -1.97
iter:   3 15:21:47 -4520.740147  -2.93  -2.18
iter:   4 15:22:43 -4520.105266  -3.75  -2.17
iter:   5 15:23:39 -4519.959811  -3.62  -2.37
iter:   6 15:24:35 -4519.826554c -2.66  -2.44
iter:   7 15:25:31 -4519.831986c -3.81  -2.71
iter:   8 15:26:26 -4519.780550c -3.88  -2.71
iter:   9 15:27:22 -4519.768006c -4.54  -2.86
iter:  10 15:28:19 -4519.779651c -3.95  -2.89
iter:  11 15:29:15 -4519.757514c -4.89  -2.88
iter:  12 15:30:13 -4519.741996c -4.88  -3.09
iter:  13 15:31:09 -4519.740858c -4.39  -3.28
iter:  14 15:32:05 -4519.742944c -5.37  -3.41
iter:  15 15:33:01 -4519.741844c -4.76  -3.34
iter:  16 15:33:56 -4519.737941c -5.64  -3.49
iter:  17 15:34:52 -4519.737400c -6.23  -3.84
iter:  18 15:35:48 -4519.737323c -5.91  -3.96
iter:  19 15:36:43 -4519.737369c -6.69  -4.11c
iter:  20 15:37:45 -4519.737658c -5.97  -4.00c
iter:  21 15:38:41 -4519.737399c -6.92  -4.30c
iter:  22 15:39:37 -4519.737519c -7.57c -4.44c

Converged after 22 iterations.

Dipole moment: (-10.028674, -39.173025, -0.003669) |e|*Ang

Energy contributions relative to reference atoms: (reference = -2581817.792169)

Kinetic:       +562.961879
Potential:     -577.032796
External:        +0.000000
XC:            -4504.677026
Entropy (-ST):   -0.729502
Local:           -0.624825
--------------------------
Free energy:   -4520.102270
Extrapolated:  -4519.737519

Showing only first 2 kpts
 Kpt  Band  Eigenvalues  Occupancy
  0   337     -0.39063    1.74825
  0   338     -0.34923    1.64223
  0   339     -0.20491    1.04033
  0   340     -0.16888    0.86111

  1   337     -0.34926    1.64234
  1   338     -0.22680    1.14872
  1   339     -0.06459    0.42081
  1   340     -0.01758    0.28551


Fermi level: -0.19684

No gap

Forces in eV/Ang:
  0 Cu    0.12394    0.05392   -0.42797
  1 Cu    0.00115    0.02114    0.19930
  2 Cu    0.04802   -0.04101    0.13376
  3 Cu    0.01729   -0.00107    0.02073
  4 Cu    0.00982    0.00895   -0.06938
  5 Cu   -0.00144   -0.00112   -0.03495
  6 Cu   -0.02167   -0.03754   -0.28444
  7 Cu   -0.02620   -0.36157   -0.08833
  8 Cu   -0.06454   -0.01816   -0.18194
  9 Cu   -0.01474   -0.06977   -0.00747
 10 Cu   -0.00314   -0.00149   -0.06301
 11 Cu    0.08441    0.41437   -0.12664
 12 Cu   -0.14777    0.01913   -0.46820
 13 Cu   -0.05016   -0.01479    0.13942
 14 Cu   -0.02152    0.00720    0.04701
 15 Cu   -0.01078   -0.01131   -0.03642
 16 Cu    0.03851    0.04064   -0.34183
 17 Cu    0.07676   -0.09528    0.00007
 18 Cu    0.00250    0.14623   -0.12234
 19 Cu    0.00320   -0.69184    0.50193
 20 Cu   -0.05841   -0.03689    0.00827
 21 Cu    0.06315   -0.01419    0.01574
 22 Cu    0.00151    0.01838    0.05331
 23 Cu   -0.01729   -0.02360    0.00696
 24 Cu    0.01367    0.02613   -0.00978
 25 Cu   -0.00558    0.02302   -0.04098
 26 Cu   -0.00662   -0.01803   -0.33652
 27 Cu    0.04126    0.02147   -0.04699
 28 Cu   -0.00194    0.65370   -0.39332
 29 Cu   -0.07921    0.55956   -0.32712
 30 Cu    0.07647   -0.54213    0.29717
 31 Cu   -0.09024    0.21904    0.02016
 32 Cu    0.01808    0.01830    0.26722
 33 Cu   -0.03926    0.08565    0.24911
 34 Cu    0.00440   -0.02131    0.03084
 35 Cu    0.01019    0.01531    0.04232
 36 Cu    0.02419   -0.00928   -0.04049
 37 Cu   -0.00447   -0.02197   -0.05222
 38 Cu   -0.06114    0.02106   -0.01562
 39 Cu    0.09120   -0.01494   -0.18307
 40 Cu    0.16247   -0.09540    0.32935
 41 Cu   -0.01170   -0.16960    0.12160
 42 Cu   -0.07652   -0.42694    0.14219
 43 Cu    0.01146    0.38130    0.09634
 44 Cu    0.00976    0.05390    0.25959
 45 Cu    0.00705    0.00491    0.05906
 46 Cu   -0.00948   -0.00646    0.06953
 47 Cu   -0.01613   -0.00595   -0.01544
 48 Cu    0.02557    0.05318   -0.03476
 49 Cu   -0.02907   -0.04803   -0.26689
 50 Cu   -0.11753   -0.39300   -0.07183
 51 Cu    0.09528    0.10101    0.09896
 52 Cu    0.00108    0.00528    0.03893
 53 Cu   -0.06008    0.04548   -0.17098
 54 Cl   -0.10925    1.73536   -0.21447
 55 Cl   -0.00707   -1.75996    0.16358
 56 Cl    0.27946   -1.98237   -0.68124
 57 Cl    0.17361    0.03193    0.61893
 58 Cl   -1.82005   -1.95485    0.31192
 59 Cl   -2.17153    2.14718    0.40490
 60 Cl   -0.15116   -0.07108   -0.63711
 61 Cl   -0.25233    2.16511    0.75998
 62 Cl    1.80819   -2.32125   -0.03538
 63 Cl    2.10867    2.56081    0.31021
 64 Cl   -0.06247   -0.18381   -1.00235
 65 Cl    0.17792   -0.19787    1.00618

System changes: positions 

Initializing position-dependent things.

Density initialized from wave functions
                                     
                                     
                                     
                                     
            Cl          Cl           
                Cl                   
                                     
        Cl Cu  ClCu  Cl Cu           
               Cu    Cu     Cu       
         Cu    Cu     Cu             
             Cu    Cu     Cu         
       Cu     Cu    Cu               
           Cu    CCu    Cu           
         Cu    Cu    CCu    Cu       
                                     
       Cu    CCu    Cu    Cu         
           Cu    CCu    Cu           
               Cu    Cu     Cu       
         Cu    Cu     Cu             
             Cu     Cu    Cu         
       Cu     Cu    Cu               
           Cu Cl  CuCl  Cu Cl        
                                     
                   Cl                
           Cl          Cl            
                                     
                                     
                                     
                                     

Positions:
   0 Cu     1.862036    1.849716   10.022234    ( 0.0000,  0.0000,  0.0000)
   1 Cu     0.571454    0.514369   11.867759    ( 0.0000,  0.0000,  0.0000)
   2 Cu     3.211691    0.542904   11.831913    ( 0.0000,  0.0000,  0.0000)
   3 Cu     1.886063    1.836112   13.701275    ( 0.0000,  0.0000,  0.0000)
   4 Cu     0.579848    0.527647   15.557810    ( 0.0000,  0.0000,  0.0000)
   5 Cu     3.185768    0.522627   15.555386    ( 0.0000,  0.0000,  0.0000)
   6 Cu     1.902374    1.851351   17.404079    ( 0.0000,  0.0000,  0.0000)
   7 Cu     0.577045    0.516985   19.177716    ( 0.0000,  0.0000,  0.0000)
   8 Cu     3.175540    0.490579   19.143960    ( 0.0000,  0.0000,  0.0000)
   9 Cu     0.573012    3.144226   11.842734    ( 0.0000,  0.0000,  0.0000)
  10 Cu     0.575498    3.142802   15.549609    ( 0.0000,  0.0000,  0.0000)
  11 Cu     0.550062    3.197837   19.178785    ( 0.0000,  0.0000,  0.0000)
  12 Cu     7.135713    1.826134   10.019056    ( 0.0000,  0.0000,  0.0000)
  13 Cu     5.791166    0.535128   11.825552    ( 0.0000,  0.0000,  0.0000)
  14 Cu     7.112855    1.831932   13.698303    ( 0.0000,  0.0000,  0.0000)
  15 Cu     5.807943    0.523444   15.555681    ( 0.0000,  0.0000,  0.0000)
  16 Cu     7.109540    1.823798   17.375230    ( 0.0000,  0.0000,  0.0000)
  17 Cu     5.820668    0.558221   19.040564    ( 0.0000,  0.0000,  0.0000)
  18 Cu     4.494155    1.776600    9.922251    ( 0.0000,  0.0000,  0.0000)
  19 Cu     4.495083    4.433871   10.040181    ( 0.0000,  0.0000,  0.0000)
  20 Cu     3.205770    3.149805   11.825851    ( 0.0000,  0.0000,  0.0000)
  21 Cu     5.794269    3.143043   11.826580    ( 0.0000,  0.0000,  0.0000)
  22 Cu     4.501178    1.834050   13.710048    ( 0.0000,  0.0000,  0.0000)
  23 Cu     4.498890    4.450443   13.700132    ( 0.0000,  0.0000,  0.0000)
  24 Cu     3.192322    3.144279   15.550384    ( 0.0000,  0.0000,  0.0000)
  25 Cu     5.806195    3.143402   15.550094    ( 0.0000,  0.0000,  0.0000)
  26 Cu     4.486699    1.842781   17.412057    ( 0.0000,  0.0000,  0.0000)
  27 Cu     4.485645    4.445249   17.424484    ( 0.0000,  0.0000,  0.0000)
  28 Cu     3.196601    3.160996   19.208789    ( 0.0000,  0.0000,  0.0000)
  29 Cu     5.835996    3.171807   19.190728    ( 0.0000,  0.0000,  0.0000)
  30 Cu     1.855466    4.423357   10.059534    ( 0.0000,  0.0000,  0.0000)
  31 Cu     1.872684    7.097652   10.098601    ( 0.0000,  0.0000,  0.0000)
  32 Cu     0.581150    5.770971   11.875188    ( 0.0000,  0.0000,  0.0000)
  33 Cu     3.204746    5.752064   11.839166    ( 0.0000,  0.0000,  0.0000)
  34 Cu     1.884792    4.451169   13.699909    ( 0.0000,  0.0000,  0.0000)
  35 Cu     1.883013    7.071317   13.695988    ( 0.0000,  0.0000,  0.0000)
  36 Cu     0.578476    5.762496   15.553159    ( 0.0000,  0.0000,  0.0000)
  37 Cu     3.189810    5.760259   15.540660    ( 0.0000,  0.0000,  0.0000)
  38 Cu     1.897203    4.452176   17.424747    ( 0.0000,  0.0000,  0.0000)
  39 Cu     1.901833    7.058675   17.423037    ( 0.0000,  0.0000,  0.0000)
  40 Cu     0.556984    5.759138   19.224217    ( 0.0000,  0.0000,  0.0000)
  41 Cu     3.195921    5.814153   19.328928    ( 0.0000,  0.0000,  0.0000)
  42 Cu     7.141430    4.399097   10.072206    ( 0.0000,  0.0000,  0.0000)
  43 Cu     7.114630    7.080318   10.070997    ( 0.0000,  0.0000,  0.0000)
  44 Cu     5.789197    5.743679   11.846377    ( 0.0000,  0.0000,  0.0000)
  45 Cu     7.116008    4.451751   13.700946    ( 0.0000,  0.0000,  0.0000)
  46 Cu     7.111390    7.066894   13.693031    ( 0.0000,  0.0000,  0.0000)
  47 Cu     5.805447    5.757973   15.550501    ( 0.0000,  0.0000,  0.0000)
  48 Cu     7.117591    4.450672   17.407384    ( 0.0000,  0.0000,  0.0000)
  49 Cu     7.119022    7.079646   17.378067    ( 0.0000,  0.0000,  0.0000)
  50 Cu     5.828719    5.714300   19.197116    ( 0.0000,  0.0000,  0.0000)
  51 Cu     4.516599    7.126219   10.087847    ( 0.0000,  0.0000,  0.0000)
  52 Cu     4.505710    7.072264   13.696209    ( 0.0000,  0.0000,  0.0000)
  53 Cu     4.478618    7.051883   17.415091    ( 0.0000,  0.0000,  0.0000)
  54 Cl     3.102882    4.611222   21.206017    ( 0.0000,  0.0000,  0.0000)
  55 Cl     4.583241    3.001024    8.042905    ( 0.0000,  0.0000,  0.0000)
  56 Cl     1.885256    5.545839    8.170822    ( 0.0000,  0.0000,  0.0000)
  57 Cl     0.575753    1.859185   21.082679    ( 0.0000,  0.0000,  0.0000)
  58 Cl     5.687104    6.880676   21.068776    ( 0.0000,  0.0000,  0.0000)
  59 Cl     6.895566    0.597690    8.037984    ( 0.0000,  0.0000,  0.0000)
  60 Cl     7.116299    5.731042    8.170122    ( 0.0000,  0.0000,  0.0000)
  61 Cl     5.809740    2.129768   21.103828    ( 0.0000,  0.0000,  0.0000)
  62 Cl     0.712908    7.004707   21.129046    ( 0.0000,  0.0000,  0.0000)
  63 Cl     1.888327    0.590196    8.058518    ( 0.0000,  0.0000,  0.0000)
  64 Cl     4.499224    5.772598    8.107086    ( 0.0000,  0.0000,  0.0000)
  65 Cl     3.200938    1.779177   21.152831    ( 0.0000,  0.0000,  0.0000)

Unit cell:
           periodic     x           y           z      points  spacing
  1. axis:    yes    7.851007    0.000000    0.000000    45     0.1655
  2. axis:    yes    2.617002    7.851007    0.000000    48     0.1636
  3. axis:    yes    0.000000    0.000000   30.683867   175     0.1753

  Lengths:   7.851007   8.275688  30.683867
  Angles:   90.000000  90.000000  71.565053

Effective grid spacing dv^(1/3) = 0.1710

     iter     time        total  log10-change:
                         energy  eigst   dens
iter:   1 15:41:04 -4524.678079  -1.49
iter:   2 15:42:00 -4522.689895  -2.25  -1.98
iter:   3 15:42:56 -4522.851967  -2.91  -2.18
iter:   4 15:43:52 -4522.097634  -3.68  -2.16
iter:   5 15:44:59 -4521.925720  -3.56  -2.39
iter:   6 15:45:57 -4521.810918c -2.83  -2.49
iter:   7 15:46:53 -4521.821464c -3.91  -2.76
iter:   8 15:47:49 -4521.792105c -3.98  -2.77
iter:   9 15:48:45 -4521.765066c -4.55  -2.92
iter:  10 15:49:41 -4521.774259c -4.10  -3.00
iter:  11 15:50:38 -4521.772531c -5.00  -3.06
iter:  12 15:51:34 -4521.757608c -4.74  -3.18
iter:  13 15:52:30 -4521.757483c -4.92  -3.42
iter:  14 15:53:28 -4521.757353c -5.37  -3.48
iter:  15 15:54:34 -4521.757095c -5.85  -3.59
iter:  16 15:55:32 -4521.756848c -5.31  -3.78
iter:  17 15:56:30 -4521.756803c -6.09  -4.00
iter:  18 15:57:27 -4521.756525c -6.99  -4.12c
iter:  19 15:58:24 -4521.756593c -7.35  -4.20c
iter:  20 15:59:25 -4521.756579c -6.93  -4.25c
iter:  21 16:00:23 -4521.756879c -6.81  -4.44c
iter:  22 16:01:41 -4521.756756c -7.07  -4.67c
iter:  23 16:02:39 -4521.756676c -8.09c -4.65c

Converged after 23 iterations.

Dipole moment: (-14.571837, -36.879170, -0.021588) |e|*Ang

Energy contributions relative to reference atoms: (reference = -2581817.792169)

Kinetic:       +541.594346
Potential:     -561.450098
External:        +0.000000
XC:            -4500.922896
Entropy (-ST):   -0.717201
Local:           -0.619428
--------------------------
Free energy:   -4522.115276
Extrapolated:  -4521.756676

Showing only first 2 kpts
 Kpt  Band  Eigenvalues  Occupancy
  0   337     -0.53117    1.75780
  0   338     -0.50536    1.69727
  0   339     -0.33537    1.01201
  0   340     -0.30368    0.85461

  1   337     -0.49300    1.66414
  1   338     -0.37664    1.21497
  1   339     -0.18293    0.36475
  1   340     -0.15319    0.28425


Fermi level: -0.33296

No gap

Forces in eV/Ang:
  0 Cu    0.07751    0.02636   -0.39116
  1 Cu    0.01598    0.11304    0.18347
  2 Cu    0.03900    0.03694    0.19069
  3 Cu    0.01795    0.00690    0.01111
  4 Cu    0.01281    0.00038   -0.09198
  5 Cu   -0.01032   -0.00399   -0.06431
  6 Cu   -0.07111   -0.01481   -0.23919
  7 Cu   -0.05486   -0.03110    0.23039
  8 Cu    0.03562   -0.00558    0.47475
  9 Cu   -0.00029   -0.13445    0.05688
 10 Cu    0.00021    0.01244   -0.07203
 11 Cu    0.08829    0.02465    0.16222
 12 Cu   -0.09458    0.01287   -0.42009
 13 Cu   -0.05584    0.07426    0.20556
 14 Cu   -0.02300    0.01232    0.03342
 15 Cu   -0.00433   -0.01601   -0.06824
 16 Cu    0.16839    0.16914   -0.36097
 17 Cu    0.00274   -0.31421    1.17639
 18 Cu   -0.00509    0.02648   -0.00719
 19 Cu    0.01954   -0.16568   -0.33786
 20 Cu   -0.09906   -0.12177    0.12972
 21 Cu    0.08934   -0.10971    0.13875
 22 Cu    0.00166    0.01815    0.02964
 23 Cu   -0.01179   -0.03238    0.01901
 24 Cu    0.00841    0.03469   -0.02365
 25 Cu   -0.00473    0.03471   -0.04550
 26 Cu   -0.08501    0.09597   -0.39528
 27 Cu    0.06112    0.08547   -0.19692
 28 Cu   -0.01938    0.14659    0.46629
 29 Cu   -0.07072    0.35736   -0.32656
 30 Cu    0.06622   -0.34491    0.26525
 31 Cu   -0.03087    0.01996   -0.59393
 32 Cu   -0.01510   -0.02274    0.18123
 33 Cu   -0.03833    0.06624    0.19513
 34 Cu    0.00369   -0.03290    0.03538
 35 Cu    0.00595    0.02058    0.06215
 36 Cu    0.02650   -0.01672   -0.03361
 37 Cu   -0.00230   -0.02455   -0.03200
 38 Cu   -0.08628    0.10949   -0.14971
 39 Cu    0.12830   -0.14125   -0.27018
 40 Cu    0.10031    0.01654    0.28870
 41 Cu    0.00709    0.01116   -0.03664
 42 Cu   -0.08087   -0.07024   -0.13665
 43 Cu    0.02879    0.03318   -0.19917
 44 Cu    0.04372    0.04886    0.19594
 45 Cu    0.00317   -0.00841    0.06857
 46 Cu   -0.00998    0.00448    0.08780
 47 Cu   -0.02029   -0.01321   -0.01831
 48 Cu    0.03269    0.09356   -0.13486
 49 Cu   -0.07399   -0.17394   -0.25701
 50 Cu   -0.04624   -0.14752    0.01756
 51 Cu   -0.00231   -0.08826   -0.41327
 52 Cu    0.00545    0.00935    0.05934
 53 Cu   -0.04724   -0.02991   -0.20479
 54 Cl   -0.06854    0.82067   -0.24150
 55 Cl   -0.07670   -1.06640    0.24063
 56 Cl    0.21746   -0.88782   -0.43957
 57 Cl    0.10611    0.01113    0.10064
 58 Cl   -1.18079   -1.39347   -0.11495
 59 Cl   -1.15928    0.91063    0.70511
 60 Cl   -0.09613   -0.04034   -0.13656
 61 Cl   -0.20936    0.63429    0.49347
 62 Cl    1.05021   -0.52506   -0.59682
 63 Cl    1.28037    1.99926    0.56462
 64 Cl   -0.14831   -0.34307   -0.27406
 65 Cl    0.25666    0.21883    0.23052

System changes: positions 

Initializing position-dependent things.

Density initialized from wave functions
                                     
                                     
                                     
                                     
            Cl          Cl           
                Cl                   
                                     
        Cl Cu  ClCu  Cl Cu           
               Cu    Cu              
         Cu    Cu     Cu    Cu       
             Cu     Cu    Cu         
       Cu     Cu    Cu               
           Cu    CCu    Cu           
         Cu    Cu    CCu    Cu       
                                     
       Cu    CCu    Cu    Cu         
           Cu    CCu    Cu           
               Cu    Cu     Cu       
         Cu    Cu     Cu             
             Cu     Cu    Cu         
       Cu     Cu    Cu               
           Cu Cl  CuCl  Cu Cl        
                                     
                   Cl                
           Cl          Cl            
                                     
                                     
                                     
                                     

Positions:
   0 Cu     1.868453    1.852016    9.990661    ( 0.0000,  0.0000,  0.0000)
   1 Cu     0.572701    0.523197   11.882637    ( 0.0000,  0.0000,  0.0000)
   2 Cu     3.214869    0.545641   11.847140    ( 0.0000,  0.0000,  0.0000)
   3 Cu     1.887511    1.836644   13.702201    ( 0.0000,  0.0000,  0.0000)
   4 Cu     0.580876    0.527701   15.550447    ( 0.0000,  0.0000,  0.0000)
   5 Cu     3.184961    0.522315   15.550284    ( 0.0000,  0.0000,  0.0000)
   6 Cu     1.896787    1.850089   17.384582    ( 0.0000,  0.0000,  0.0000)
   7 Cu     0.572739    0.513260   19.195120    ( 0.0000,  0.0000,  0.0000)
   8 Cu     3.177997    0.490193   19.179634    ( 0.0000,  0.0000,  0.0000)
   9 Cu     0.572945    3.133581   11.847128    ( 0.0000,  0.0000,  0.0000)
  10 Cu     0.575503    3.143759   15.543835    ( 0.0000,  0.0000,  0.0000)
  11 Cu     0.557150    3.201250   19.190844    ( 0.0000,  0.0000,  0.0000)
  12 Cu     7.127912    1.827277    9.985138    ( 0.0000,  0.0000,  0.0000)
  13 Cu     5.786669    0.540841   11.841955    ( 0.0000,  0.0000,  0.0000)
  14 Cu     7.111002    1.832907   13.701046    ( 0.0000,  0.0000,  0.0000)
  15 Cu     5.807571    0.522164   15.550255    ( 0.0000,  0.0000,  0.0000)
  16 Cu     7.122758    1.837084   17.346067    ( 0.0000,  0.0000,  0.0000)
  17 Cu     5.821245    0.534255   19.128611    ( 0.0000,  0.0000,  0.0000)
  18 Cu     4.493755    1.779071    9.921406    ( 0.0000,  0.0000,  0.0000)
  19 Cu     4.496598    4.418191   10.016534    ( 0.0000,  0.0000,  0.0000)
  20 Cu     3.197882    3.140226   11.835970    ( 0.0000,  0.0000,  0.0000)
  21 Cu     5.801415    3.134471   11.837418    ( 0.0000,  0.0000,  0.0000)
  22 Cu     4.501311    1.835513   13.712522    ( 0.0000,  0.0000,  0.0000)
  23 Cu     4.497918    4.447856   13.701629    ( 0.0000,  0.0000,  0.0000)
  24 Cu     3.193024    3.147053   15.548520    ( 0.0000,  0.0000,  0.0000)
  25 Cu     5.805806    3.146165   15.546435    ( 0.0000,  0.0000,  0.0000)
  26 Cu     4.480056    1.850203   17.380266    ( 0.0000,  0.0000,  0.0000)
  27 Cu     4.490538    4.451968   17.409029    ( 0.0000,  0.0000,  0.0000)
  28 Cu     3.195110    3.175150   19.242513    ( 0.0000,  0.0000,  0.0000)
  29 Cu     5.830267    3.201333   19.164360    ( 0.0000,  0.0000,  0.0000)
  30 Cu     1.860840    4.394835   10.081020    ( 0.0000,  0.0000,  0.0000)
  31 Cu     1.869939    7.100082   10.053489    ( 0.0000,  0.0000,  0.0000)
  32 Cu     0.580039    5.769267   11.890129    ( 0.0000,  0.0000,  0.0000)
  33 Cu     3.201642    5.757474   11.855121    ( 0.0000,  0.0000,  0.0000)
  34 Cu     1.885095    4.448551   13.702747    ( 0.0000,  0.0000,  0.0000)
  35 Cu     1.883509    7.072964   13.700954    ( 0.0000,  0.0000,  0.0000)
  36 Cu     0.580610    5.761175   15.550422    ( 0.0000,  0.0000,  0.0000)
  37 Cu     3.189617    5.758288   15.538006    ( 0.0000,  0.0000,  0.0000)
  38 Cu     1.890302    4.460749   17.413056    ( 0.0000,  0.0000,  0.0000)
  39 Cu     1.912106    7.047643   17.401469    ( 0.0000,  0.0000,  0.0000)
  40 Cu     0.565272    5.760062   19.247531    ( 0.0000,  0.0000,  0.0000)
  41 Cu     3.196441    5.814526   19.326339    ( 0.0000,  0.0000,  0.0000)
  42 Cu     7.134933    4.392139   10.062161    ( 0.0000,  0.0000,  0.0000)
  43 Cu     7.116889    7.084276   10.056004    ( 0.0000,  0.0000,  0.0000)
  44 Cu     5.792624    5.747637   11.862432    ( 0.0000,  0.0000,  0.0000)
  45 Cu     7.116276    4.451117   13.706443    ( 0.0000,  0.0000,  0.0000)
  46 Cu     7.110584    7.067224   13.700065    ( 0.0000,  0.0000,  0.0000)
  47 Cu     5.803820    5.756932   15.549037    ( 0.0000,  0.0000,  0.0000)
  48 Cu     7.120203    4.458097   17.396805    ( 0.0000,  0.0000,  0.0000)
  49 Cu     7.113167    7.065989   17.357235    ( 0.0000,  0.0000,  0.0000)
  50 Cu     5.824754    5.701553   19.198249    ( 0.0000,  0.0000,  0.0000)
  51 Cu     4.516804    7.119805   10.056489    ( 0.0000,  0.0000,  0.0000)
  52 Cu     4.506137    7.073006   13.700939    ( 0.0000,  0.0000,  0.0000)
  53 Cu     4.474759    7.049702   17.398645    ( 0.0000,  0.0000,  0.0000)
  54 Cl     3.097228    4.680573   21.187004    ( 0.0000,  0.0000,  0.0000)
  55 Cl     4.577258    2.912657    8.061789    ( 0.0000,  0.0000,  0.0000)
  56 Cl     1.902969    5.469373    8.134189    ( 0.0000,  0.0000,  0.0000)
  57 Cl     0.584558    1.860214   21.092788    ( 0.0000,  0.0000,  0.0000)
  58 Cl     5.589396    6.765976   21.061396    ( 0.0000,  0.0000,  0.0000)
  59 Cl     6.798302    0.676190    8.093214    ( 0.0000,  0.0000,  0.0000)
  60 Cl     7.108306    5.727573    8.157222    ( 0.0000,  0.0000,  0.0000)
  61 Cl     5.792769    2.188472   21.145395    ( 0.0000,  0.0000,  0.0000)
  62 Cl     0.800250    6.953336   21.085298    ( 0.0000,  0.0000,  0.0000)
  63 Cl     1.994906    0.753522    8.102852    ( 0.0000,  0.0000,  0.0000)
  64 Cl     4.487511    5.745982    8.081641    ( 0.0000,  0.0000,  0.0000)
  65 Cl     3.221470    1.794759   21.175085    ( 0.0000,  0.0000,  0.0000)

Unit cell:
           periodic     x           y           z      points  spacing
  1. axis:    yes    7.851007    0.000000    0.000000    45     0.1655
  2. axis:    yes    2.617002    7.851007    0.000000    48     0.1636
  3. axis:    yes    0.000000    0.000000   30.683867   175     0.1753

  Lengths:   7.851007   8.275688  30.683867
  Angles:   90.000000  90.000000  71.565053

Effective grid spacing dv^(1/3) = 0.1710

     iter     time        total  log10-change:
                         energy  eigst   dens
iter:   1 16:04:09 -4525.897753  -1.55
iter:   2 16:05:06 -4530.942438  -2.10  -1.96
iter:   3 16:06:12 -4524.029114  -2.41  -1.74
iter:   4 16:07:07 -4523.251711  -2.98  -2.22
iter:   5 16:08:31 -4523.145950  -3.48  -2.45
iter:   6 16:09:27 -4523.145465c -3.25  -2.59
iter:   7 16:10:24 -4523.109023c -3.73  -2.71
iter:   8 16:11:21 -4523.074999c -3.79  -2.89
iter:   9 16:12:25 -4523.072213c -4.22  -2.98
iter:  10 16:13:25 -4523.067562c -4.92  -3.18
iter:  11 16:14:40 -4523.066052c -4.46  -3.30
iter:  12 16:15:43 -4523.062598c -5.74  -3.41
iter:  13 16:17:04 -4523.064180c -5.01  -3.57
iter:  14 16:18:03 -4523.063113c -6.22  -3.80
iter:  15 16:19:06 -4523.062571c -5.79  -3.80
iter:  16 16:20:13 -4523.061895c -6.15  -4.14c
iter:  17 16:21:11 -4523.061987c -7.05  -4.21c
iter:  18 16:22:09 -4523.061956c -7.15  -4.24c
iter:  19 16:23:12 -4523.062009c -7.94c -4.39c

Converged after 19 iterations.

Dipole moment: (-17.745132, -33.584299, -0.000291) |e|*Ang

Energy contributions relative to reference atoms: (reference = -2581817.792169)

Kinetic:       +538.817801
Potential:     -560.094040
External:        +0.000000
XC:            -4500.859366
Entropy (-ST):   -0.663314
Local:           -0.594747
--------------------------
Free energy:   -4523.393666
Extrapolated:  -4523.062009

Showing only first 2 kpts
 Kpt  Band  Eigenvalues  Occupancy
  0   337     -0.52247    1.74290
  0   338     -0.49935    1.68651
  0   339     -0.32734    0.98128
  0   340     -0.29888    0.84036

  1   337     -0.47671    1.62190
  1   338     -0.36585    1.17210
  1   339     -0.15816    0.30137
  1   340     -0.13108    0.23838


Fermi level: -0.33109

No gap

Forces in eV/Ang:
  0 Cu   -0.01241    0.29640    0.29381
  1 Cu    0.00308    0.03067   -0.04143
  2 Cu   -0.02011   -0.03465    0.04470
  3 Cu    0.01092    0.00675    0.03753
  4 Cu    0.00745   -0.00379   -0.10167
  5 Cu   -0.01054   -0.00276   -0.07086
  6 Cu   -0.00327   -0.01747   -0.03384
  7 Cu   -0.03157    0.01771    0.08270
  8 Cu    0.02860   -0.02825    0.31938
  9 Cu   -0.04318   -0.12654    0.00595
 10 Cu    0.01670    0.02778   -0.09540
 11 Cu    0.03721    0.00309    0.08000
 12 Cu    0.02539    0.23897    0.10437
 13 Cu    0.01313   -0.01993    0.05317
 14 Cu   -0.01350    0.01109    0.05368
 15 Cu    0.00232   -0.01234   -0.04547
 16 Cu   -0.02576   -0.03836   -0.00666
 17 Cu   -0.00216   -0.02291    0.53455
 18 Cu   -0.03425   -0.18593    0.43317
 19 Cu    0.01315   -0.12972   -0.18549
 20 Cu   -0.01056   -0.07561    0.08758
 21 Cu    0.04462   -0.03351    0.04479
 22 Cu   -0.00117    0.01960    0.04319
 23 Cu   -0.00619   -0.01827    0.00318
 24 Cu   -0.01412    0.03359   -0.04648
 25 Cu    0.00079    0.03511   -0.06412
 26 Cu    0.03422   -0.08443   -0.00035
 27 Cu   -0.04123    0.04718   -0.14666
 28 Cu   -0.01123    0.11179    0.23301
 29 Cu   -0.02943   -0.06535   -0.06429
 30 Cu    0.02841   -0.06064    0.09791
 31 Cu   -0.00606   -0.08641   -0.38335
 32 Cu    0.00341    0.01516    0.02383
 33 Cu   -0.01121    0.07282    0.00641
 34 Cu   -0.00014   -0.02387    0.02488
 35 Cu    0.00118    0.01300    0.05109
 36 Cu    0.01940   -0.01302   -0.07284
 37 Cu    0.00570   -0.02496   -0.06417
 38 Cu   -0.03622    0.01098   -0.04268
 39 Cu   -0.01690    0.05446   -0.06210
 40 Cu   -0.02489   -0.28486   -0.25117
 41 Cu    0.05207    0.18338   -0.42839
 42 Cu   -0.03828   -0.01360   -0.07460
 43 Cu    0.02029   -0.02344   -0.10494
 44 Cu   -0.00030    0.02408    0.03477
 45 Cu    0.00212   -0.00945    0.05345
 46 Cu    0.00040   -0.00246    0.08072
 47 Cu   -0.02085   -0.01280   -0.06092
 48 Cu    0.08830    0.08264   -0.07874
 49 Cu    0.01088    0.00959    0.01533
 50 Cu    0.07161   -0.17765   -0.36343
 51 Cu   -0.01983   -0.08217   -0.32295
 52 Cu    0.00000   -0.00034    0.05198
 53 Cu    0.01320    0.05671   -0.05699
 54 Cl   -0.14154    0.24892    0.13665
 55 Cl   -0.09645   -0.42613   -0.13115
 56 Cl    0.01316   -0.59127   -0.24618
 57 Cl    0.02909    0.01836    0.08143
 58 Cl   -0.57971   -0.56101    0.24367
 59 Cl   -0.40937    0.06805    0.24099
 60 Cl   -0.01397   -0.03194   -0.07936
 61 Cl    0.01333    0.55605    0.19753
 62 Cl    0.44661    0.05768   -0.02601
 63 Cl    0.62626    0.85158   -0.02753
 64 Cl   -0.10073    0.25551   -0.22907
 65 Cl    0.14647   -0.15708    0.21227

System changes: positions 

Initializing position-dependent things.

Density initialized from wave functions
                                     
                                     
                                     
                                     
            Cl         Cl            
                Cl                   
                                     
        Cl Cu  ClCu  Cl Cu           
               Cu    Cu              
         Cu    Cu     Cu    Cu       
             Cu     Cu    Cu         
       Cu     Cu    Cu               
           Cu    CCu    Cu           
         Cu    Cu    CCu    Cu       
                                     
       Cu    CCu    Cu    Cu         
           Cu    CCu    Cu           
                     Cu     Cu       
         Cu    Cu     Cu             
             Cu    Cu     Cu         
       Cu     Cu    Cu               
           Cu Cl  CuCl  Cu Cl        
                                     
                   Cl                
           Cl          Cl            
                                     
                                     
                                     
                                     

Positions:
   0 Cu     1.867912    1.897314   10.028677    ( 0.0000,  0.0000,  0.0000)
   1 Cu     0.573409    0.529550   11.879401    ( 0.0000,  0.0000,  0.0000)
   2 Cu     3.212479    0.540902   11.856938    ( 0.0000,  0.0000,  0.0000)
   3 Cu     1.889454    1.837766   13.708066    ( 0.0000,  0.0000,  0.0000)
   4 Cu     0.582209    0.527144   15.533607    ( 0.0000,  0.0000,  0.0000)
   5 Cu     3.183210    0.521838   15.538563    ( 0.0000,  0.0000,  0.0000)
   6 Cu     1.895197    1.847179   17.375481    ( 0.0000,  0.0000,  0.0000)
   7 Cu     0.567124    0.514903   19.210864    ( 0.0000,  0.0000,  0.0000)
   8 Cu     3.182720    0.485859   19.234508    ( 0.0000,  0.0000,  0.0000)
   9 Cu     0.566396    3.112352   11.848870    ( 0.0000,  0.0000,  0.0000)
  10 Cu     0.578025    3.148140   15.528260    ( 0.0000,  0.0000,  0.0000)
  11 Cu     0.564199    3.202735   19.205135    ( 0.0000,  0.0000,  0.0000)
  12 Cu     7.130133    1.863648    9.994047    ( 0.0000,  0.0000,  0.0000)
  13 Cu     5.787747    0.538920   11.853266    ( 0.0000,  0.0000,  0.0000)
  14 Cu     7.108586    1.834777   13.709724    ( 0.0000,  0.0000,  0.0000)
  15 Cu     5.807840    0.520044   15.542305    ( 0.0000,  0.0000,  0.0000)
  16 Cu     7.121453    1.833890   17.339155    ( 0.0000,  0.0000,  0.0000)
  17 Cu     5.821117    0.526267   19.225614    ( 0.0000,  0.0000,  0.0000)
  18 Cu     4.488500    1.751550    9.986636    ( 0.0000,  0.0000,  0.0000)
  19 Cu     4.498878    4.394884    9.984554    ( 0.0000,  0.0000,  0.0000)
  20 Cu     3.194716    3.126919   11.851171    ( 0.0000,  0.0000,  0.0000)
  21 Cu     5.809588    3.127738   11.846295    ( 0.0000,  0.0000,  0.0000)
  22 Cu     4.501162    1.838770   13.719568    ( 0.0000,  0.0000,  0.0000)
  23 Cu     4.496780    4.444578   13.702403    ( 0.0000,  0.0000,  0.0000)
  24 Cu     3.191038    3.152685   15.541128    ( 0.0000,  0.0000,  0.0000)
  25 Cu     5.805845    3.152022   15.536009    ( 0.0000,  0.0000,  0.0000)
  26 Cu     4.483934    1.838870   17.373809    ( 0.0000,  0.0000,  0.0000)
  27 Cu     4.485287    4.460415   17.383840    ( 0.0000,  0.0000,  0.0000)
  28 Cu     3.193129    3.195442   19.283647    ( 0.0000,  0.0000,  0.0000)
  29 Cu     5.824656    3.197588   19.149307    ( 0.0000,  0.0000,  0.0000)
  30 Cu     1.866226    4.379745   10.100180    ( 0.0000,  0.0000,  0.0000)
  31 Cu     1.868409    7.087703    9.987081    ( 0.0000,  0.0000,  0.0000)
  32 Cu     0.580355    5.771244   11.896824    ( 0.0000,  0.0000,  0.0000)
  33 Cu     3.199317    5.769587   11.859363    ( 0.0000,  0.0000,  0.0000)
  34 Cu     1.885136    4.444423   13.707078    ( 0.0000,  0.0000,  0.0000)
  35 Cu     1.883791    7.075259   13.709668    ( 0.0000,  0.0000,  0.0000)
  36 Cu     0.583973    5.758947   15.538854    ( 0.0000,  0.0000,  0.0000)
  37 Cu     3.190438    5.754118   15.527755    ( 0.0000,  0.0000,  0.0000)
  38 Cu     1.883447    4.464081   17.404332    ( 0.0000,  0.0000,  0.0000)
  39 Cu     1.911612    7.053727   17.387776    ( 0.0000,  0.0000,  0.0000)
  40 Cu     0.563231    5.717105   19.214292    ( 0.0000,  0.0000,  0.0000)
  41 Cu     3.204403    5.842193   19.261160    ( 0.0000,  0.0000,  0.0000)
  42 Cu     7.127840    4.388380   10.049082    ( 0.0000,  0.0000,  0.0000)
  43 Cu     7.120397    7.081829   10.037361    ( 0.0000,  0.0000,  0.0000)
  44 Cu     5.793249    5.752079   11.870990    ( 0.0000,  0.0000,  0.0000)
  45 Cu     7.116653    4.449571   13.715624    ( 0.0000,  0.0000,  0.0000)
  46 Cu     7.110481    7.066913   13.713675    ( 0.0000,  0.0000,  0.0000)
  47 Cu     5.800343    5.754793   15.539538    ( 0.0000,  0.0000,  0.0000)
  48 Cu     7.134069    4.472059   17.382836    ( 0.0000,  0.0000,  0.0000)
  49 Cu     7.113654    7.064763   17.355317    ( 0.0000,  0.0000,  0.0000)
  50 Cu     5.834720    5.671934   19.143490    ( 0.0000,  0.0000,  0.0000)
  51 Cu     4.513939    7.106254   10.001801    ( 0.0000,  0.0000,  0.0000)
  52 Cu     4.506221    7.073101   13.709738    ( 0.0000,  0.0000,  0.0000)
  53 Cu     4.475963    7.057885   17.386726    ( 0.0000,  0.0000,  0.0000)
  54 Cl     3.074666    4.732937   21.203921    ( 0.0000,  0.0000,  0.0000)
  55 Cl     4.561519    2.829856    8.045665    ( 0.0000,  0.0000,  0.0000)
  56 Cl     1.908578    5.363444    8.089309    ( 0.0000,  0.0000,  0.0000)
  57 Cl     0.590790    1.863228   21.107596    ( 0.0000,  0.0000,  0.0000)
  58 Cl     5.481470    6.657481   21.097164    ( 0.0000,  0.0000,  0.0000)
  59 Cl     6.715912    0.703504    8.140417    ( 0.0000,  0.0000,  0.0000)
  60 Cl     7.104524    5.721994    8.142187    ( 0.0000,  0.0000,  0.0000)
  61 Cl     5.791334    2.286107   21.184054    ( 0.0000,  0.0000,  0.0000)
  62 Cl     0.886004    6.949591   21.073537    ( 0.0000,  0.0000,  0.0000)
  63 Cl     2.111852    0.915705    8.107373    ( 0.0000,  0.0000,  0.0000)
  64 Cl     4.469979    5.779460    8.041110    ( 0.0000,  0.0000,  0.0000)
  65 Cl     3.247715    1.773693   21.212506    ( 0.0000,  0.0000,  0.0000)

Unit cell:
           periodic     x           y           z      points  spacing
  1. axis:    yes    7.851007    0.000000    0.000000    45     0.1655
  2. axis:    yes    2.617002    7.851007    0.000000    48     0.1636
  3. axis:    yes    0.000000    0.000000   30.683867   175     0.1753

  Lengths:   7.851007   8.275688  30.683867
  Angles:   90.000000  90.000000  71.565053

Effective grid spacing dv^(1/3) = 0.1710

     iter     time        total  log10-change:
                         energy  eigst   dens
iter:   1 16:24:45 -4527.161657  -1.53
iter:   2 16:25:41 -4527.416540  -2.11  -1.98
iter:   3 16:26:40 -4524.086205  -2.74  -1.90
iter:   4 16:27:37 -4523.838534  -3.72  -2.32
iter:   5 16:28:33 -4523.752911c -3.56  -2.44
iter:   6 16:29:36 -4523.676543c -3.18  -2.54
iter:   7 16:30:34 -4523.662061c -4.04  -2.82
iter:   8 16:31:31 -4523.651090c -4.52  -2.92
iter:   9 16:32:29 -4523.651546c -3.96  -2.97
iter:  10 16:33:31 -4523.646639c -4.32  -3.15
iter:  11 16:34:31 -4523.639199c -4.98  -3.15
iter:  12 16:35:29 -4523.638918c -5.46  -3.50
iter:  13 16:36:26 -4523.639622c -5.49  -3.60
iter:  14 16:37:23 -4523.639160c -5.81  -3.63
iter:  15 16:38:21 -4523.638756c -6.40  -3.87
iter:  16 16:39:23 -4523.638614c -6.61  -4.07c
iter:  17 16:40:23 -4523.638300c -6.06  -4.14c
iter:  18 16:41:21 -4523.638471c -7.02  -4.26c
iter:  19 16:42:20 -4523.638445c -7.71c -4.40c

Converged after 19 iterations.

Dipole moment: (-20.419640, -31.831820, -0.011972) |e|*Ang

Energy contributions relative to reference atoms: (reference = -2581817.792169)

Kinetic:       +530.880324
Potential:     -554.065887
External:        +0.000000
XC:            -4499.496884
Entropy (-ST):   -0.654147
Local:           -0.628925
--------------------------
Free energy:   -4523.965518
Extrapolated:  -4523.638445

Showing only first 2 kpts
 Kpt  Band  Eigenvalues  Occupancy
  0   337     -0.54555    1.72266
  0   338     -0.52745    1.67652
  0   339     -0.36068    0.98880
  0   340     -0.33638    0.86809

  1   337     -0.49766    1.58741
  1   338     -0.39839    1.17551
  1   339     -0.18953    0.30018
  1   340     -0.16382    0.24031


Fermi level: -0.36291

No gap

Forces in eV/Ang:
  0 Cu   -0.06548   -0.00784    0.27194
  1 Cu   -0.00929   -0.10676   -0.11546
  2 Cu   -0.07817   -0.15639    0.01685
  3 Cu   -0.01052   -0.01676   -0.00784
  4 Cu   -0.00775    0.01620   -0.01431
  5 Cu    0.01523    0.01405   -0.00236
  6 Cu    0.04217   -0.00760    0.09436
  7 Cu    0.00917    0.09495    0.03317
  8 Cu   -0.01477   -0.11933    0.21765
  9 Cu   -0.06392    0.06633    0.11288
 10 Cu    0.00090   -0.01651   -0.00073
 11 Cu   -0.00633   -0.09611    0.03116
 12 Cu    0.04654    0.10304    0.16620
 13 Cu    0.07865   -0.12207    0.00769
 14 Cu   -0.00080   -0.01598    0.00793
 15 Cu   -0.00747    0.00375   -0.00135
 16 Cu   -0.05292   -0.05615    0.09332
 17 Cu   -0.02111    0.03520    0.15533
 18 Cu   -0.01675    0.09828    0.07913
 19 Cu    0.00215   -0.13487   -0.21203
 20 Cu    0.07319    0.07257    0.10765
 21 Cu   -0.01886    0.07158    0.02200
 22 Cu    0.00694   -0.00937    0.00242
 23 Cu   -0.00200    0.01441   -0.04637
 24 Cu   -0.00376   -0.02534    0.00736
 25 Cu    0.00470   -0.00815    0.02626
 26 Cu    0.01464   -0.08364    0.16901
 27 Cu   -0.06414   -0.10084   -0.08840
 28 Cu   -0.00078    0.11974    0.17495
 29 Cu   -0.00204   -0.16808   -0.07291
 30 Cu    0.00443    0.20541    0.00267
 31 Cu    0.01822   -0.07216   -0.16192
 32 Cu    0.00978    0.01355   -0.06023
 33 Cu    0.00982    0.04103   -0.12090
 34 Cu   -0.00349    0.00604   -0.06300
 35 Cu    0.00938    0.00426   -0.02255
 36 Cu    0.01099    0.02296   -0.02896
 37 Cu   -0.01356    0.01545   -0.02115
 38 Cu    0.04777   -0.09265   -0.04246
 39 Cu   -0.09380    0.14477   -0.00534
 40 Cu    0.01406    0.05867    0.06056
 41 Cu    0.05607   -0.13320    0.02680
 42 Cu   -0.00123    0.08295   -0.02262
 43 Cu   -0.00134   -0.10499   -0.03615
 44 Cu   -0.02590   -0.00021   -0.08864
 45 Cu    0.00242    0.00678   -0.03296
 46 Cu    0.00529   -0.00750    0.00064
 47 Cu    0.00889    0.01805   -0.01335
 48 Cu    0.04185   -0.12349   -0.14175
 49 Cu    0.04042    0.13714    0.08941
 50 Cu    0.00623    0.25832    0.18205
 51 Cu   -0.00208    0.10339   -0.19980
 52 Cu   -0.01383   -0.00833   -0.02175
 53 Cu    0.06880    0.14818   -0.03145
 54 Cl   -0.24306   -0.15779   -0.24599
 55 Cl    0.01774    0.27833    0.16610
 56 Cl   -0.08810   -0.38270   -0.13961
 57 Cl    0.03773    0.03058    0.02969
 58 Cl    0.00338   -0.25528   -0.23655
 59 Cl    0.15308   -0.40073    0.12309
 60 Cl    0.00115   -0.03872   -0.03376
 61 Cl    0.10780    0.41043    0.15199
 62 Cl   -0.06172    0.16596   -0.20315
 63 Cl    0.01206    0.14707   -0.08467
 64 Cl   -0.07838    0.24296   -0.11376
 65 Cl    0.08551   -0.21566    0.11051

System changes: positions 

Initializing position-dependent things.

Density initialized from wave functions
                                     
                                     
                                     
                                     
            Cl         Cl            
                Cl                   
                                     
        Cl Cu  ClCu  Cl Cu           
               Cu    Cu              
         Cu     Cu    Cu    Cu       
             Cu    CCu    Cu         
       Cu     Cu                     
           Cu    CCu    Cu           
         Cu    Cu    CCu    Cu       
                                     
       Cu    CCu    Cu    Cu         
           Cu    CCu    Cu           
                            Cu       
         Cu    Cu    CCu             
             Cu    Cu     Cu         
       Cu     Cu    Cu               
           Cu Cl  CuCl  Cu Cl        
                                     
                   Cl                
            Cl        Cl             
                                     
                                     
                                     
                                     

Positions:
   0 Cu     1.860427    1.910565   10.070734    ( 0.0000,  0.0000,  0.0000)
   1 Cu     0.572581    0.519151   11.865661    ( 0.0000,  0.0000,  0.0000)
   2 Cu     3.202577    0.520665   11.863069    ( 0.0000,  0.0000,  0.0000)
   3 Cu     1.888894    1.836117   13.709010    ( 0.0000,  0.0000,  0.0000)
   4 Cu     0.581760    0.528943   15.526168    ( 0.0000,  0.0000,  0.0000)
   5 Cu     3.184460    0.523367   15.534328    ( 0.0000,  0.0000,  0.0000)
   6 Cu     1.899445    1.845234   17.382462    ( 0.0000,  0.0000,  0.0000)
   7 Cu     0.566236    0.525934   19.220418    ( 0.0000,  0.0000,  0.0000)
   8 Cu     3.182360    0.470139   19.278987    ( 0.0000,  0.0000,  0.0000)
   9 Cu     0.556644    3.113113   11.863254    ( 0.0000,  0.0000,  0.0000)
  10 Cu     0.578903    3.147544   15.522959    ( 0.0000,  0.0000,  0.0000)
  11 Cu     0.566128    3.192611   19.213673    ( 0.0000,  0.0000,  0.0000)
  12 Cu     7.135741    1.887401   10.014216    ( 0.0000,  0.0000,  0.0000)
  13 Cu     5.797224    0.523899   11.858834    ( 0.0000,  0.0000,  0.0000)
  14 Cu     7.107607    1.833489   13.713583    ( 0.0000,  0.0000,  0.0000)
  15 Cu     5.806981    0.519753   15.539323    ( 0.0000,  0.0000,  0.0000)
  16 Cu     7.115491    1.826966   17.346026    ( 0.0000,  0.0000,  0.0000)
  17 Cu     5.818763    0.526945   19.277324    ( 0.0000,  0.0000,  0.0000)
  18 Cu     4.484839    1.755307   10.016032    ( 0.0000,  0.0000,  0.0000)
  19 Cu     4.499922    4.369032    9.949232    ( 0.0000,  0.0000,  0.0000)
  20 Cu     3.202019    3.130974   11.869423    ( 0.0000,  0.0000,  0.0000)
  21 Cu     5.810343    3.133790   11.852322    ( 0.0000,  0.0000,  0.0000)
  22 Cu     4.501962    1.838753   13.722261    ( 0.0000,  0.0000,  0.0000)
  23 Cu     4.496104    4.445123   13.697145    ( 0.0000,  0.0000,  0.0000)
  24 Cu     3.190040    3.151561   15.539624    ( 0.0000,  0.0000,  0.0000)
  25 Cu     5.806391    3.153033   15.535695    ( 0.0000,  0.0000,  0.0000)
  26 Cu     4.486495    1.825698   17.389821    ( 0.0000,  0.0000,  0.0000)
  27 Cu     4.476292    4.451273   17.364474    ( 0.0000,  0.0000,  0.0000)
  28 Cu     3.192349    3.218433   19.317935    ( 0.0000,  0.0000,  0.0000)
  29 Cu     5.822232    3.178796   19.133850    ( 0.0000,  0.0000,  0.0000)
  30 Cu     1.868846    4.397326   10.108088    ( 0.0000,  0.0000,  0.0000)
  31 Cu     1.869791    7.075811    9.945145    ( 0.0000,  0.0000,  0.0000)
  32 Cu     0.581604    5.773424   11.892932    ( 0.0000,  0.0000,  0.0000)
  33 Cu     3.199542    5.778711   11.847421    ( 0.0000,  0.0000,  0.0000)
  34 Cu     1.884755    4.443701   13.701020    ( 0.0000,  0.0000,  0.0000)
  35 Cu     1.885055    7.076598   13.709984    ( 0.0000,  0.0000,  0.0000)
  36 Cu     0.586494    5.760944   15.531582    ( 0.0000,  0.0000,  0.0000)
  37 Cu     3.189036    5.754553   15.521811    ( 0.0000,  0.0000,  0.0000)
  38 Cu     1.886602    4.454452   17.395836    ( 0.0000,  0.0000,  0.0000)
  39 Cu     1.900894    7.072403   17.381387    ( 0.0000,  0.0000,  0.0000)
  40 Cu     0.565038    5.710828   19.213176    ( 0.0000,  0.0000,  0.0000)
  41 Cu     3.213626    5.834387   19.244345    ( 0.0000,  0.0000,  0.0000)
  42 Cu     7.125027    4.396016   10.042077    ( 0.0000,  0.0000,  0.0000)
  43 Cu     7.121454    7.069390   10.026684    ( 0.0000,  0.0000,  0.0000)
  44 Cu     5.790527    5.753732   11.864292    ( 0.0000,  0.0000,  0.0000)
  45 Cu     7.117088    4.449888   13.714874    ( 0.0000,  0.0000,  0.0000)
  46 Cu     7.111025    7.065921   13.718450    ( 0.0000,  0.0000,  0.0000)
  47 Cu     5.800227    5.756245   15.534902    ( 0.0000,  0.0000,  0.0000)
  48 Cu     7.143567    4.461963   17.360791    ( 0.0000,  0.0000,  0.0000)
  49 Cu     7.118289    7.080076   17.363863    ( 0.0000,  0.0000,  0.0000)
  50 Cu     5.838108    5.692560   19.148548    ( 0.0000,  0.0000,  0.0000)
  51 Cu     4.513029    7.114435    9.959524    ( 0.0000,  0.0000,  0.0000)
  52 Cu     4.504604    7.072176   13.710153    ( 0.0000,  0.0000,  0.0000)
  53 Cu     4.484310    7.078228   17.378046    ( 0.0000,  0.0000,  0.0000)
  54 Cl     3.037914    4.736980   21.178241    ( 0.0000,  0.0000,  0.0000)
  55 Cl     4.558468    2.829960    8.061912    ( 0.0000,  0.0000,  0.0000)
  56 Cl     1.901125    5.276304    8.055245    ( 0.0000,  0.0000,  0.0000)
  57 Cl     0.598061    1.867991   21.117553    ( 0.0000,  0.0000,  0.0000)
  58 Cl     5.439911    6.583333   21.080062    ( 0.0000,  0.0000,  0.0000)
  59 Cl     6.699614    0.672239    8.173144    ( 0.0000,  0.0000,  0.0000)
  60 Cl     7.102762    5.715231    8.131513    ( 0.0000,  0.0000,  0.0000)
  61 Cl     5.802551    2.374096   21.218383    ( 0.0000,  0.0000,  0.0000)
  62 Cl     0.913003    6.959777   21.044377    ( 0.0000,  0.0000,  0.0000)
  63 Cl     2.159168    0.996910    8.101311    ( 0.0000,  0.0000,  0.0000)
  64 Cl     4.454369    5.817574    8.011221    ( 0.0000,  0.0000,  0.0000)
  65 Cl     3.267581    1.741310   21.240971    ( 0.0000,  0.0000,  0.0000)

Unit cell:
           periodic     x           y           z      points  spacing
  1. axis:    yes    7.851007    0.000000    0.000000    45     0.1655
  2. axis:    yes    2.617002    7.851007    0.000000    48     0.1636
  3. axis:    yes    0.000000    0.000000   30.683867   175     0.1753

  Lengths:   7.851007   8.275688  30.683867
  Angles:   90.000000  90.000000  71.565053

Effective grid spacing dv^(1/3) = 0.1710

     iter     time        total  log10-change:
                         energy  eigst   dens
iter:   1 16:43:50 -4524.170416  -2.00
iter:   2 16:44:46 -4524.109375  -3.12  -2.47
iter:   3 16:45:39 -4523.963907c -3.99  -2.52
iter:   4 16:46:39 -4523.911054c -3.50  -2.64
iter:   5 16:47:40 -4523.904802c -3.81  -2.78
iter:   6 16:49:01 -4523.886412c -4.23  -2.91
iter:   7 16:50:04 -4523.874523c -4.55  -3.09
iter:   8 16:51:10 -4523.876891c -4.84  -3.20
iter:   9 16:52:07 -4523.873330c -4.81  -3.26
iter:  10 16:53:05 -4523.872121c -5.67  -3.48
iter:  11 16:54:03 -4523.872247c -5.64  -3.60
iter:  12 16:55:00 -4523.872434c -5.77  -3.67
iter:  13 16:55:58 -4523.872210c -5.72  -3.80
iter:  14 16:57:07 -4523.871710c -6.13  -4.02c
iter:  15 16:58:05 -4523.871786c -7.10  -4.22c
iter:  16 16:59:02 -4523.871766c -7.33  -4.32c
iter:  17 16:59:59 -4523.871878c -7.03  -4.41c
iter:  18 17:00:56 -4523.871868c -7.78c -4.51c

Converged after 18 iterations.

Dipole moment: (-22.248600, -31.940735, 0.014132) |e|*Ang

Energy contributions relative to reference atoms: (reference = -2581817.792169)

Kinetic:       +530.613228
Potential:     -554.049376
External:        +0.000000
XC:            -4499.486694
Entropy (-ST):   -0.643277
Local:           -0.627388
--------------------------
Free energy:   -4524.193506
Extrapolated:  -4523.871868

Showing only first 2 kpts
 Kpt  Band  Eigenvalues  Occupancy
  0   337     -0.53160    1.71425
  0   338     -0.51205    1.66293
  0   339     -0.34746    0.97508
  0   340     -0.32561    0.86665

  1   337     -0.47585    1.54907
  1   338     -0.38810    1.17643
  1   339     -0.17801    0.29754
  1   340     -0.15823    0.25083


Fermi level: -0.35244

No gap

Forces in eV/Ang:
  0 Cu   -0.02463   -0.13437    0.05760
  1 Cu   -0.01828   -0.09417   -0.07046
  2 Cu   -0.01929   -0.10383   -0.01936
  3 Cu   -0.01741   -0.02725   -0.04338
  4 Cu   -0.00668    0.02817    0.02964
  5 Cu    0.02341    0.02689    0.01304
  6 Cu    0.05545    0.00607    0.11359
  7 Cu    0.00838    0.03071   -0.01211
  8 Cu   -0.01750   -0.01774    0.09831
  9 Cu   -0.02058    0.12143    0.09886
 10 Cu    0.00871   -0.04188    0.01346
 11 Cu   -0.02762   -0.03742   -0.02751
 12 Cu   -0.01103   -0.04128    0.04666
 13 Cu    0.02516   -0.07462   -0.03567
 14 Cu   -0.00101   -0.02622   -0.02375
 15 Cu   -0.01547    0.02282    0.00646
 16 Cu   -0.02072   -0.04354    0.06375
 17 Cu   -0.04543    0.17716   -0.08874
 18 Cu   -0.01923    0.01918    0.05915
 19 Cu   -0.00442    0.00163   -0.14936
 20 Cu    0.04475    0.08607    0.04540
 21 Cu   -0.03496    0.06182    0.00703
 22 Cu    0.01270   -0.02909   -0.03411
 23 Cu    0.00825    0.04029   -0.01471
 24 Cu    0.00119   -0.05575   -0.00147
 25 Cu   -0.00830   -0.03840    0.02664
 26 Cu   -0.03598   -0.04513    0.16326
 27 Cu    0.02532   -0.03835    0.03276
 28 Cu    0.01268   -0.04392    0.07381
 29 Cu    0.01004   -0.04591   -0.03349
 30 Cu   -0.00824    0.15059    0.03667
 31 Cu    0.04098   -0.11755    0.01934
 32 Cu    0.00584    0.01243   -0.05387
 33 Cu    0.03881    0.01293   -0.14517
 34 Cu    0.00188    0.02718   -0.04741
 35 Cu    0.01741   -0.01120   -0.04255
 36 Cu    0.00558    0.02460    0.01110
 37 Cu   -0.01474    0.03123    0.01988
 38 Cu    0.02335   -0.04148    0.00543
 39 Cu   -0.02394    0.05561    0.05089
 40 Cu   -0.00460   -0.02481   -0.09028
 41 Cu    0.05591    0.01611   -0.14012
 42 Cu    0.01785    0.07913    0.01224
 43 Cu   -0.00379   -0.03278   -0.00467
 44 Cu   -0.04821   -0.01902   -0.12038
 45 Cu   -0.01108    0.02485   -0.02615
 46 Cu    0.00150   -0.01886   -0.03527
 47 Cu    0.01853    0.02500    0.03155
 48 Cu   -0.02886   -0.03057    0.02950
 49 Cu    0.02331    0.04966    0.08249
 50 Cu    0.11240   -0.10547   -0.32015
 51 Cu    0.01144    0.11638   -0.13138
 52 Cu   -0.01918   -0.02002   -0.02820
 53 Cu    0.01989    0.06294    0.02447
 54 Cl   -0.33531   -0.35057   -0.07866
 55 Cl    0.23675    0.39721    0.16011
 56 Cl   -0.07496   -0.30586   -0.14511
 57 Cl    0.04209    0.01351    0.04857
 58 Cl    0.11505    0.06206    0.17593
 59 Cl    0.20999   -0.27937    0.06209
 60 Cl   -0.02797   -0.03746   -0.05509
 61 Cl    0.09337    0.34943    0.09020
 62 Cl   -0.17177    0.20992    0.10764
 63 Cl   -0.22500   -0.00029    0.09932
 64 Cl   -0.10524    0.21753   -0.09319
 65 Cl    0.11875   -0.20187    0.09191

System changes: positions 

Initializing position-dependent things.

Density initialized from wave functions
                                     
                                     
                                     
                                     
            Cl         Cl            
                                     
                Cl                   
        Cl Cu  ClCu   ClCu           
               Cu           Cu       
         Cu     Cu   CCu             
             CCu   CCu    Cu         
       Cu                            
           Cu    CCu    Cu           
         Cu    Cu    CCu    Cu       
                                     
       Cu    CCu    Cu    Cu         
           Cu    CCu    Cu           
                            Cu       
         Cu    CCu   CCu             
             Cu    Cu     Cu         
       Cu     Cu    Cu               
           Cu Cl  CuCl  Cu Cl        
                                     
                   Cl                
            Cl        Cl             
                                     
                                     
                                     
                                     

Positions:
   0 Cu     1.850228    1.904502   10.117714    ( 0.0000,  0.0000,  0.0000)
   1 Cu     0.569040    0.495714   11.843161    ( 0.0000,  0.0000,  0.0000)
   2 Cu     3.190360    0.484563   11.868828    ( 0.0000,  0.0000,  0.0000)
   3 Cu     1.885862    1.830236   13.703307    ( 0.0000,  0.0000,  0.0000)
   4 Cu     0.580494    0.535253   15.521635    ( 0.0000,  0.0000,  0.0000)
   5 Cu     3.189243    0.529161   15.530805    ( 0.0000,  0.0000,  0.0000)
   6 Cu     1.911570    1.844004   17.404098    ( 0.0000,  0.0000,  0.0000)
   7 Cu     0.565665    0.541243   19.231625    ( 0.0000,  0.0000,  0.0000)
   8 Cu     3.179960    0.451964   19.347468    ( 0.0000,  0.0000,  0.0000)
   9 Cu     0.543561    3.130601   11.894025    ( 0.0000,  0.0000,  0.0000)
  10 Cu     0.581354    3.140551   15.518127    ( 0.0000,  0.0000,  0.0000)
  11 Cu     0.565034    3.177178   19.220389    ( 0.0000,  0.0000,  0.0000)
  12 Cu     7.138186    1.905814   10.036242    ( 0.0000,  0.0000,  0.0000)
  13 Cu     5.809695    0.498228   11.861672    ( 0.0000,  0.0000,  0.0000)
  14 Cu     7.106046    1.828241   13.714361    ( 0.0000,  0.0000,  0.0000)
  15 Cu     5.803584    0.522883   15.536120    ( 0.0000,  0.0000,  0.0000)
  16 Cu     7.108529    1.815204   17.357923    ( 0.0000,  0.0000,  0.0000)
  17 Cu     5.809043    0.552101   19.334128    ( 0.0000,  0.0000,  0.0000)
  18 Cu     4.477764    1.760361   10.058185    ( 0.0000,  0.0000,  0.0000)
  19 Cu     4.500599    4.341255    9.884302    ( 0.0000,  0.0000,  0.0000)
  20 Cu     3.214801    3.146469   11.896944    ( 0.0000,  0.0000,  0.0000)
  21 Cu     5.807025    3.147798   11.861620    ( 0.0000,  0.0000,  0.0000)
  22 Cu     4.504825    1.834405   13.720058    ( 0.0000,  0.0000,  0.0000)
  23 Cu     4.496593    4.451632   13.690049    ( 0.0000,  0.0000,  0.0000)
  24 Cu     3.189256    3.142152   15.537123    ( 0.0000,  0.0000,  0.0000)
  25 Cu     5.805480    3.148522   15.538462    ( 0.0000,  0.0000,  0.0000)
  26 Cu     4.482155    1.806244   17.426355    ( 0.0000,  0.0000,  0.0000)
  27 Cu     4.472373    4.438019   17.347210    ( 0.0000,  0.0000,  0.0000)
  28 Cu     3.193307    3.236068   19.371750    ( 0.0000,  0.0000,  0.0000)
  29 Cu     5.820291    3.157709   19.108458    ( 0.0000,  0.0000,  0.0000)
  30 Cu     1.871194    4.433340   10.126373    ( 0.0000,  0.0000,  0.0000)
  31 Cu     1.877373    7.044485    9.896106    ( 0.0000,  0.0000,  0.0000)
  32 Cu     0.583568    5.777374   11.883142    ( 0.0000,  0.0000,  0.0000)
  33 Cu     3.205500    5.791179   11.814974    ( 0.0000,  0.0000,  0.0000)
  34 Cu     1.884754    4.446782   13.688240    ( 0.0000,  0.0000,  0.0000)
  35 Cu     1.889216    7.076445   13.704689    ( 0.0000,  0.0000,  0.0000)
  36 Cu     0.590378    5.766513   15.525279    ( 0.0000,  0.0000,  0.0000)
  37 Cu     3.185309    5.759501   15.518331    ( 0.0000,  0.0000,  0.0000)
  38 Cu     1.891836    4.440169   17.386128    ( 0.0000,  0.0000,  0.0000)
  39 Cu     1.888426    7.097829   17.379283    ( 0.0000,  0.0000,  0.0000)
  40 Cu     0.567109    5.697966   19.198540    ( 0.0000,  0.0000,  0.0000)
  41 Cu     3.232233    5.831833   19.200167    ( 0.0000,  0.0000,  0.0000)
  42 Cu     7.123766    4.415221   10.034709    ( 0.0000,  0.0000,  0.0000)
  43 Cu     7.122454    7.052373   10.011849    ( 0.0000,  0.0000,  0.0000)
  44 Cu     5.780616    5.753099   11.841208    ( 0.0000,  0.0000,  0.0000)
  45 Cu     7.115739    4.454063   13.711393    ( 0.0000,  0.0000,  0.0000)
  46 Cu     7.111652    7.061912   13.719252    ( 0.0000,  0.0000,  0.0000)
  47 Cu     5.802663    5.761417   15.534805    ( 0.0000,  0.0000,  0.0000)
  48 Cu     7.149201    4.449586   17.342065    ( 0.0000,  0.0000,  0.0000)
  49 Cu     7.125595    7.100398   17.382127    ( 0.0000,  0.0000,  0.0000)
  50 Cu     5.859991    5.690719   19.096848    ( 0.0000,  0.0000,  0.0000)
  51 Cu     4.513789    7.139206    9.888522    ( 0.0000,  0.0000,  0.0000)
  52 Cu     4.499990    7.068126   13.707289    ( 0.0000,  0.0000,  0.0000)
  53 Cu     4.494967    7.108024   17.370394    ( 0.0000,  0.0000,  0.0000)
  54 Cl     2.945385    4.696990   21.139079    ( 0.0000,  0.0000,  0.0000)
  55 Cl     4.592502    2.876171    8.105641    ( 0.0000,  0.0000,  0.0000)
  56 Cl     1.884887    5.124914    7.990362    ( 0.0000,  0.0000,  0.0000)
  57 Cl     0.613662    1.875071   21.137166    ( 0.0000,  0.0000,  0.0000)
  58 Cl     5.396944    6.498045   21.093853    ( 0.0000,  0.0000,  0.0000)
  59 Cl     6.698397    0.609818    8.226861    ( 0.0000,  0.0000,  0.0000)
  60 Cl     7.095001    5.701759    8.109661    ( 0.0000,  0.0000,  0.0000)
  61 Cl     5.825778    2.529419   21.274660    ( 0.0000,  0.0000,  0.0000)
  62 Cl     0.929577    6.997760   21.025731    ( 0.0000,  0.0000,  0.0000)
  63 Cl     2.191297    1.110680    8.119607    ( 0.0000,  0.0000,  0.0000)
  64 Cl     4.419081    5.887406    7.961450    ( 0.0000,  0.0000,  0.0000)
  65 Cl     3.311127    1.678860   21.288378    ( 0.0000,  0.0000,  0.0000)

Unit cell:
           periodic     x           y           z      points  spacing
  1. axis:    yes    7.851007    0.000000    0.000000    45     0.1655
  2. axis:    yes    2.617002    7.851007    0.000000    48     0.1636
  3. axis:    yes    0.000000    0.000000   30.683867   175     0.1753

  Lengths:   7.851007   8.275688  30.683867
  Angles:   90.000000  90.000000  71.565053

Effective grid spacing dv^(1/3) = 0.1710

     iter     time        total  log10-change:
                         energy  eigst   dens
iter:   1 17:02:27 -4525.699215  -1.61
iter:   2 17:03:24 -4530.469844  -2.13  -2.06
[...]
 10 Cu   -0.00462    0.00240   -0.00351
 11 Cu    0.00080   -0.00641    0.01378
 12 Cu    0.00116    0.00101    0.00139
 13 Cu   -0.00155   -0.01690   -0.00980
 14 Cu    0.00920    0.00385   -0.00664
 15 Cu    0.00404   -0.00513   -0.01212
 16 Cu   -0.00254    0.01562   -0.00871
 17 Cu   -0.00987   -0.00337   -0.00343
 18 Cu   -0.00125   -0.00337    0.00541
 19 Cu   -0.00367   -0.01494    0.00420
 20 Cu   -0.00132    0.00146   -0.01235
 21 Cu    0.01054   -0.01694    0.02266
 22 Cu   -0.01378   -0.01148   -0.00152
 23 Cu   -0.00042   -0.00241   -0.01035
 24 Cu   -0.00155    0.01251   -0.00436
 25 Cu   -0.00445   -0.00733    0.00030
 26 Cu   -0.01473    0.00133   -0.00510
 27 Cu   -0.00322   -0.01199   -0.00499
 28 Cu   -0.00013    0.01391    0.00469
 29 Cu    0.02030    0.02168    0.00911
 30 Cu   -0.02199   -0.00589    0.00357
 31 Cu    0.00557    0.00309   -0.00297
 32 Cu    0.02022   -0.00935    0.00998
 33 Cu    0.00749   -0.00111    0.00381
 34 Cu   -0.00008   -0.00855    0.00657
 35 Cu   -0.00073    0.01318   -0.00241
 36 Cu   -0.00455   -0.00603   -0.00590
 37 Cu   -0.00606    0.00683    0.00097
 38 Cu   -0.00805    0.00816   -0.01003
 39 Cu   -0.00015    0.00752    0.01714
 40 Cu    0.00287    0.00253    0.00805
 41 Cu    0.01377   -0.00210    0.00355
 42 Cu   -0.02193    0.01385    0.00153
 43 Cu   -0.00395   -0.00684    0.01248
 44 Cu   -0.00074   -0.01323    0.00304
 45 Cu   -0.00621   -0.00538   -0.00098
 46 Cu    0.00320   -0.01282   -0.00172
 47 Cu   -0.00656    0.01269   -0.00405
 48 Cu   -0.00212   -0.00073    0.01873
 49 Cu    0.01654    0.00246   -0.01185
 50 Cu   -0.00273    0.00661   -0.00356
 51 Cu    0.00661    0.00290    0.00423
 52 Cu   -0.00145   -0.00501   -0.01837
 53 Cu   -0.01265   -0.00167   -0.00481
 54 Cl    0.00663   -0.00513   -0.00142
 55 Cl    0.01774   -0.00925    0.00095
 56 Cl    0.01534   -0.01131   -0.00803
 57 Cl    0.02871   -0.01202    0.00945
 58 Cl    0.02064   -0.01605   -0.00553
 59 Cl   -0.01449    0.00367   -0.00035
 60 Cl    0.01517   -0.00758   -0.01426
 61 Cl   -0.02095    0.05077   -0.00339
 62 Cl    0.01066   -0.01694   -0.00087
 63 Cl   -0.03327    0.03550    0.01228
 64 Cl   -0.01259    0.01016    0.00533
 65 Cl   -0.01525   -0.00105   -0.00306

System changes: positions 

Initializing position-dependent things.

Density initialized from wave functions
                                      
                                      
                                      
                                      
             Cl       Cl              
                                      
               Cl        Cl           
        Cl Cu     Cu    Cu            
               Cu Cl  Cu    Cu        
          Cu    Cu    Cu              
        Cu    Cu    CCu    Cu         
              Cu                      
           CCu    Cu    CCu           
          Cu   CCu    CCu   Cu        
                                      
        Cu    Cu    CCu    Cu         
           CCu    Cu    CCu           
                      Cu              
          Cu   CCu     Cu   Cu        
              Cu    Cu     Cu         
        Cu    Cu  Cl Cu               
            Cu    Cu     Cu Cl        
           Cl        Cl               
                                      
              Cl        Cl            
                                      
                                      
                                      
                                      

Positions:
   0 Cu     1.864445    1.847695   10.085983    ( 0.0000,  0.0000,  0.0000)
   1 Cu     0.542098    0.535059   11.848101    ( 0.0000,  0.0000,  0.0000)
   2 Cu     3.194423    0.516753   11.861086    ( 0.0000,  0.0000,  0.0000)
   3 Cu     1.873246    1.839196   13.694271    ( 0.0000,  0.0000,  0.0000)
   4 Cu     0.567757    0.523440   15.535351    ( 0.0000,  0.0000,  0.0000)
   5 Cu     3.193375    0.526741   15.540853    ( 0.0000,  0.0000,  0.0000)
   6 Cu     1.855358    1.831813   17.385889    ( 0.0000,  0.0000,  0.0000)
   7 Cu     0.559494    0.525412   19.283405    ( 0.0000,  0.0000,  0.0000)
   8 Cu     3.192984    0.510785   19.239807    ( 0.0000,  0.0000,  0.0000)
   9 Cu     0.554566    3.162627   11.831956    ( 0.0000,  0.0000,  0.0000)
  10 Cu     0.571611    3.142011   15.541945    ( 0.0000,  0.0000,  0.0000)
  11 Cu     0.555310    3.126338   19.359414    ( 0.0000,  0.0000,  0.0000)
  12 Cu     7.108311    1.828852    9.873460    ( 0.0000,  0.0000,  0.0000)
  13 Cu     5.810210    0.527510   11.816684    ( 0.0000,  0.0000,  0.0000)
  14 Cu     7.112216    1.839435   13.695107    ( 0.0000,  0.0000,  0.0000)
  15 Cu     5.815976    0.526402   15.543646    ( 0.0000,  0.0000,  0.0000)
  16 Cu     7.119342    1.816942   17.423480    ( 0.0000,  0.0000,  0.0000)
  17 Cu     5.842720    0.502600   19.340487    ( 0.0000,  0.0000,  0.0000)
  18 Cu     4.473371    1.818683   10.019060    ( 0.0000,  0.0000,  0.0000)
  19 Cu     4.541375    4.461946   10.078791    ( 0.0000,  0.0000,  0.0000)
  20 Cu     3.201070    3.152664   11.894484    ( 0.0000,  0.0000,  0.0000)
  21 Cu     5.841569    3.142051   11.828524    ( 0.0000,  0.0000,  0.0000)
  22 Cu     4.512033    1.836243   13.698950    ( 0.0000,  0.0000,  0.0000)
  23 Cu     4.514677    4.458391   13.706717    ( 0.0000,  0.0000,  0.0000)
  24 Cu     3.184585    3.139415   15.538229    ( 0.0000,  0.0000,  0.0000)
  25 Cu     5.819235    3.137178   15.549160    ( 0.0000,  0.0000,  0.0000)
  26 Cu     4.506657    1.808267   17.383894    ( 0.0000,  0.0000,  0.0000)
  27 Cu     4.499251    4.449011   17.349077    ( 0.0000,  0.0000,  0.0000)
  28 Cu     3.166010    3.134135   19.149479    ( 0.0000,  0.0000,  0.0000)
  29 Cu     5.770702    3.100734   19.218475    ( 0.0000,  0.0000,  0.0000)
  30 Cu     1.933856    4.488604   10.022404    ( 0.0000,  0.0000,  0.0000)
  31 Cu     1.852631    7.087103    9.923621    ( 0.0000,  0.0000,  0.0000)
  32 Cu     0.571183    5.777463   11.813776    ( 0.0000,  0.0000,  0.0000)
  33 Cu     3.192387    5.785528   11.858710    ( 0.0000,  0.0000,  0.0000)
  34 Cu     1.878234    4.463645   13.693633    ( 0.0000,  0.0000,  0.0000)
  35 Cu     1.874335    7.069525   13.698083    ( 0.0000,  0.0000,  0.0000)
  36 Cu     0.578977    5.759764   15.546835    ( 0.0000,  0.0000,  0.0000)
  37 Cu     3.185305    5.763244   15.542500    ( 0.0000,  0.0000,  0.0000)
  38 Cu     1.854064    4.457932   17.406642    ( 0.0000,  0.0000,  0.0000)
  39 Cu     1.875517    7.070140   17.420041    ( 0.0000,  0.0000,  0.0000)
  40 Cu     0.570404    5.766408   19.368938    ( 0.0000,  0.0000,  0.0000)
  41 Cu     3.208001    5.776044   19.218852    ( 0.0000,  0.0000,  0.0000)
  42 Cu     7.147720    4.466726    9.867947    ( 0.0000,  0.0000,  0.0000)
  43 Cu     7.135475    7.064708    9.932045    ( 0.0000,  0.0000,  0.0000)
  44 Cu     5.841168    5.764881   11.847491    ( 0.0000,  0.0000,  0.0000)
  45 Cu     7.124686    4.457666   13.699195    ( 0.0000,  0.0000,  0.0000)
  46 Cu     7.125152    7.075471   13.702558    ( 0.0000,  0.0000,  0.0000)
  47 Cu     5.822695    5.761944   15.547935    ( 0.0000,  0.0000,  0.0000)
  48 Cu     7.139613    4.435545   17.411991    ( 0.0000,  0.0000,  0.0000)
  49 Cu     7.145691    7.060736   17.401898    ( 0.0000,  0.0000,  0.0000)
  50 Cu     5.823673    5.745594   19.170770    ( 0.0000,  0.0000,  0.0000)
  51 Cu     4.494309    7.082157   10.003629    ( 0.0000,  0.0000,  0.0000)
  52 Cu     4.502503    7.071051   13.701278    ( 0.0000,  0.0000,  0.0000)
  53 Cu     4.498456    7.079096   17.381615    ( 0.0000,  0.0000,  0.0000)
  54 Cl     2.267347    4.422965   20.886536    ( 0.0000,  0.0000,  0.0000)
  55 Cl     5.369415    3.153609    8.329582    ( 0.0000,  0.0000,  0.0000)
  56 Cl     1.032181    3.157744    8.338082    ( 0.0000,  0.0000,  0.0000)
  57 Cl     0.283358    1.726796   21.215680    ( 0.0000,  0.0000,  0.0000)
  58 Cl     4.626468    6.976105   20.835070    ( 0.0000,  0.0000,  0.0000)
  59 Cl     6.966592    0.467648    7.984761    ( 0.0000,  0.0000,  0.0000)
  60 Cl     7.311626    5.848469    7.990238    ( 0.0000,  0.0000,  0.0000)
  61 Cl     6.608633    4.434905   20.925446    ( 0.0000,  0.0000,  0.0000)
  62 Cl     0.662980    7.103053   21.275783    ( 0.0000,  0.0000,  0.0000)
  63 Cl     3.033492    0.623499    8.407710    ( 0.0000,  0.0000,  0.0000)
  64 Cl     3.372239    5.682909    8.402471    ( 0.0000,  0.0000,  0.0000)
  65 Cl     4.301374    1.910491   20.839034    ( 0.0000,  0.0000,  0.0000)

Unit cell:
           periodic     x           y           z      points  spacing
  1. axis:    yes    7.851007    0.000000    0.000000    45     0.1655
  2. axis:    yes    2.617002    7.851007    0.000000    48     0.1636
  3. axis:    yes    0.000000    0.000000   30.683867   175     0.1753

  Lengths:   7.851007   8.275688  30.683867
  Angles:   90.000000  90.000000  71.565053

Effective grid spacing dv^(1/3) = 0.1710

     iter     time        total  log10-change:
                         energy  eigst   dens
iter:   1 03:09:50 -4528.567236  -4.03
iter:   2 03:10:37 -4528.566473  -5.23  -3.64
iter:   3 03:11:25 -4528.565473c -6.01  -3.72
iter:   4 03:12:12 -4528.565162c -5.52  -3.85
iter:   5 03:13:01 -4528.565140c -6.60  -4.08c
iter:   6 03:13:48 -4528.565098c -6.62  -4.22c
iter:   7 03:14:36 -4528.565074c -6.88  -4.41c
iter:   8 03:15:24 -4528.565087c -7.11  -4.56c
iter:   9 03:16:12 -4528.565078c -7.43c -4.76c

Converged after 9 iterations.

Dipole moment: (-4.165384, -38.139404, 0.002676) |e|*Ang

Energy contributions relative to reference atoms: (reference = -2581817.792169)

Kinetic:       +540.646353
Potential:     -563.302516
External:        +0.000000
XC:            -4504.878870
Entropy (-ST):   -0.594049
Local:           -0.733020
--------------------------
Free energy:   -4528.862102
Extrapolated:  -4528.565078

Showing only first 2 kpts
 Kpt  Band  Eigenvalues  Occupancy
  0   337     -0.65825    1.85432
  0   338     -0.58468    1.71830
  0   339     -0.52796    1.55148
  0   340     -0.45873    1.26767

  1   337     -0.57848    1.70294
  1   338     -0.35356    0.75368
  1   339     -0.30873    0.55726
  1   340     -0.24283    0.33311


Fermi level: -0.40386

No gap

Forces in eV/Ang:
  0 Cu   -0.01169   -0.00036   -0.00215
  1 Cu    0.00551    0.00254   -0.00185
  2 Cu    0.00532   -0.00378   -0.00592
  3 Cu    0.00376   -0.01050    0.00302
  4 Cu   -0.00073   -0.00029    0.00702
  5 Cu   -0.00651    0.00089    0.00266
  6 Cu    0.00166    0.00492   -0.00091
  7 Cu    0.00532    0.00231   -0.00423
  8 Cu    0.00340    0.00602   -0.01229
  9 Cu   -0.00116    0.00743   -0.00859
 10 Cu   -0.00678    0.00274   -0.00124
 11 Cu   -0.00353    0.00035    0.01536
 12 Cu    0.00174    0.00276   -0.00248
 13 Cu   -0.00085   -0.01472   -0.00111
 14 Cu    0.00661    0.00125    0.00053
 15 Cu    0.00024   -0.00644   -0.00758
 16 Cu   -0.00459    0.00477   -0.00223
 17 Cu   -0.00308   -0.00109   -0.00619
 18 Cu    0.00352   -0.00121    0.00331
 19 Cu   -0.00993   -0.00771    0.00425
 20 Cu    0.00173   -0.00073   -0.00425
 21 Cu   -0.00007   -0.01067    0.00838
 22 Cu   -0.00835   -0.00908    0.00135
 23 Cu   -0.00072   -0.00295   -0.00494
 24 Cu   -0.00118    0.00860   -0.00544
 25 Cu   -0.00291   -0.00247   -0.00227
 26 Cu   -0.00732   -0.00342    0.00360
 27 Cu   -0.00670   -0.01161   -0.00037
 28 Cu    0.00053    0.00853   -0.00672
 29 Cu    0.01208    0.01293    0.00774
 30 Cu   -0.01456    0.00217    0.00856
 31 Cu    0.00631    0.00886   -0.00348
 32 Cu    0.01504   -0.00079    0.00936
 33 Cu    0.00577    0.00122   -0.00155
 34 Cu   -0.00020   -0.00921    0.00399
 35 Cu    0.00498    0.01068    0.00145
 36 Cu   -0.00214   -0.00423   -0.00265
 37 Cu   -0.00266    0.00626   -0.00206
 38 Cu   -0.00211    0.00263    0.00191
 39 Cu   -0.00221    0.00635    0.00945
 40 Cu    0.00498   -0.00567   -0.00145
 41 Cu    0.00765   -0.00175    0.00332
 42 Cu   -0.01249    0.01110   -0.00878
 43 Cu   -0.00263   -0.00347    0.00024
 44 Cu    0.00315   -0.00520    0.00465
 45 Cu    0.00136   -0.00437   -0.00002
 46 Cu    0.00123   -0.00650   -0.00084
 47 Cu   -0.00371    0.00525   -0.00251
 48 Cu   -0.00074   -0.00219    0.01070
 49 Cu    0.00702   -0.00113   -0.00173
 50 Cu   -0.00061    0.00640   -0.01227
 51 Cu    0.00806   -0.00260    0.01095
 52 Cu    0.00048   -0.00337   -0.00847
 53 Cu   -0.00435    0.00026   -0.00424
 54 Cl    0.00025    0.00794    0.01059
 55 Cl    0.01806   -0.01168   -0.00017
 56 Cl   -0.01335   -0.02175   -0.00513
 57 Cl    0.01980    0.00530    0.00990
 58 Cl   -0.00077    0.00784   -0.00012
 59 Cl   -0.00961    0.00285    0.00174
 60 Cl   -0.00581    0.00062    0.00738
 61 Cl    0.00368    0.02065    0.00965
 62 Cl    0.00946   -0.00238    0.01402
 63 Cl   -0.00600   -0.00379   -0.00509
 64 Cl   -0.00252   -0.00503    0.00398
 65 Cl   -0.00518    0.00929    0.00430

Timing:                                      incl.     excl.
-------------------------------------------------------------------
Density initialized from wave functions:   209.303   209.301   0.5% |
 Symmetrize density:                         0.002     0.002   0.0% |
Forces:                                    970.654   970.654   2.2% ||
Hamiltonian:                               359.867     0.743   0.0% |
 Atomic:                                    15.955     3.012   0.0% |
  XC Correction:                            12.942    12.942   0.0% |
 Calculate atomic Hamiltonians:             87.886    87.886   0.2% |
 Communicate:                                3.045     3.045   0.0% |
 Initialize Hamiltonian:                     0.002     0.002   0.0% |
 Poisson:                                    0.228     0.228   0.0% |
 XC 3D grid:                               252.007    38.036   0.1% |
  VdW-DF integral:                         213.972     7.178   0.0% |
   Convolution:                             14.512    14.512   0.0% |
   FFT:                                      7.728     7.728   0.0% |
   gather:                                  69.866    69.866   0.2% |
   hmm1:                                     4.334     4.334   0.0% |
   hmm2:                                    10.790    10.790   0.0% |
   iFFT:                                     7.871     7.871   0.0% |
   potential:                               86.316     0.819   0.0% |
    collect:                                12.845    12.845   0.0% |
    p1:                                     40.966    40.966   0.1% |
    p2:                                     15.281    15.281   0.0% |
    sum:                                    16.405    16.405   0.0% |
   splines:                                  5.377     5.377   0.0% |
LCAO initialization:                       242.166     0.585   0.0% |
 LCAO eigensolver:                          12.415     0.001   0.0% |
  Blacs Orbital Layouts:                     0.734     0.001   0.0% |
   General diagonalize:                      0.715     0.715   0.0% |
   Redistribute coefs:                       0.011     0.011   0.0% |
   Send coefs to domains:                    0.007     0.007   0.0% |
  Calculate projections:                     0.010     0.010   0.0% |
  Distribute overlap matrix:                11.342     0.001   0.0% |
   Scalapack redistribute:                   0.013     0.013   0.0% |
   blocked summation:                       11.328    11.328   0.0% |
  Potential matrix:                          0.196     0.196   0.0% |
  SparseAtomicCorrection:                    0.017     0.017   0.0% |
  Sum over cells:                            0.116     0.116   0.0% |
 LCAO to grid:                             226.335   226.335   0.5% |
 Set positions (LCAO WFS):                   2.831     0.011   0.0% |
  Basic WFS set positions:                   0.003     0.003   0.0% |
  Basis functions set positions:             0.000     0.000   0.0% |
  P tci:                                     0.000     0.000   0.0% |
  ST tci:                                    0.445     0.445   0.0% |
  Scalapack redistribute:                    0.049     0.049   0.0% |
  blocked summation:                         2.151     2.151   0.0% |
  mktci:                                     0.172     0.172   0.0% |
PWDescriptor:                                0.723     0.723   0.0% |
Redistribute:                                0.045     0.045   0.0% |
SCF-cycle:                               43061.839  1331.599   3.0% ||
 Davidson:                               31791.527  8193.903  18.2% |------|
  Apply H:                                3252.728  3196.249   7.1% |--|
   HMM T:                                   56.479    56.479   0.1% |
  Subspace diag:                          5436.676     0.161   0.0% |
   calc_h_matrix:                         4023.641   808.758   1.8% ||
    Apply H:                              3214.883  3155.904   7.0% |--|
     HMM T:                                 58.979    58.979   0.1% |
   diagonalize:                            168.332   168.332   0.4% |
   rotate_psi:                            1244.544  1244.544   2.8% ||
  calc. matrices:                        11643.590  5289.218  11.7% |----|
   Apply H:                               6354.373  6242.697  13.8% |-----|
    HMM T:                                 111.675   111.675   0.2% |
  diagonalize:                             964.186   964.186   2.1% ||
  rotate_psi:                             2300.443  2300.443   5.1% |-|
 Density:                                 3551.225     0.037   0.0% |
  Atomic density matrices:                  13.554    13.554   0.0% |
  Mix:                                    1732.452  1732.452   3.8% |-|
  Multipole moments:                         0.953     0.953   0.0% |
  Pseudo density:                         1804.229  1804.193   4.0% |-|
   Symmetrize density:                       0.035     0.035   0.0% |
 Hamiltonian:                             6206.806    12.651   0.0% |
  Atomic:                                  251.714    45.563   0.1% |
   XC Correction:                          206.151   206.151   0.5% |
  Calculate atomic Hamiltonians:          1461.595  1461.595   3.2% ||
  Communicate:                             111.295   111.295   0.2% |
  Poisson:                                   3.918     3.918   0.0% |
  XC 3D grid:                             4365.633   648.966   1.4% ||
   VdW-DF integral:                       3716.667   116.315   0.3% |
    Convolution:                           236.935   236.935   0.5% |
    FFT:                                   122.099   122.099   0.3% |
    gather:                               1442.757  1442.757   3.2% ||
    hmm1:                                   72.003    72.003   0.2% |
    hmm2:                                  172.180   172.180   0.4% |
    iFFT:                                  127.842   127.842   0.3% |
    potential:                            1426.528    13.498   0.0% |
     collect:                              218.289   218.289   0.5% |
     p1:                                   656.202   656.202   1.5% ||
     p2:                                   246.617   246.617   0.5% |
     sum:                                  291.923   291.923   0.6% |
    splines:                                 0.008     0.008   0.0% |
 Orthonormalize:                           180.682     0.017   0.0% |
  calc_s_matrix:                            22.498    22.498   0.0% |
  inverse-cholesky:                          5.883     5.883   0.0% |
  projections:                             114.651   114.651   0.3% |
  rotate_psi_s:                             37.634    37.634   0.1% |
Set symmetry:                                0.001     0.001   0.0% |
Other:                                     287.097   287.097   0.6% |
-------------------------------------------------------------------
Total:                                             45131.696 100.0%

Memory usage: 1.39 GiB
Date: Tue Oct 18 03:16:31 2022
