
  ___ ___ ___ _ _ _  
 |   |   |_  | | | | 
 | | | | | . | | | | 
 |__ |  _|___|_____|  22.1.0
 |___|_|             

User:   thorkong@node029.cluster
Date:   Fri Oct 14 17:08:29 2022
Arch:   x86_64
Pid:    5301
Python: 3.10.5
gpaw:   /groups/kemi/thorkong/miniconda3/envs/gpaw22/lib/python3.10/site-packages/gpaw
_gpaw:  /groups/kemi/thorkong/miniconda3/envs/gpaw22/lib/python3.10/site-packages/
        _gpaw.cpython-310-x86_64-linux-gnu.so
ase:    /groups/kemi/thorkong/miniconda3/envs/gpaw22/lib/python3.10/site-packages/ase (version 3.22.1)
numpy:  /groups/kemi/thorkong/miniconda3/envs/gpaw22/lib/python3.10/site-packages/numpy (version 1.23.0)
scipy:  /groups/kemi/thorkong/miniconda3/envs/gpaw22/lib/python3.10/site-packages/scipy (version 1.8.1)
libxc:  5.2.3
units:  Angstrom and eV
cores: 32
OpenMP: True
OMP_NUM_THREADS: 1

Input parameters:
  basis: dzp
  kpts: [4 4 1]
  mode: {ecut: 600.0,
         name: pw}
  xc: BEEF-vdW

System changes: positions, numbers, cell, pbc, initial_charges, initial_magmoms 

Initialize ...

Cu-setup:
  name: Copper
  id: f1c4d45d90492f1bbfdcb091e8418fdf
  Z: 29.0
  valence: 11
  core: 18
  charge: 0.0
  file: /groups/kemi/thorkong/miniconda3/envs/gpaw22/share/gpaw/Cu.PBE.gz
  compensation charges: gauss, rc=0.33, lmax=2
  cutoffs: 2.06(filt), 2.43(core),
  valence states:
                energy  radius
    4s(1.00)    -4.609   1.164
    4p(0.00)    -0.698   1.164
    3d(10.00)    -5.039   1.058
    *s          22.603   1.164
    *p          26.513   1.164
    *d          22.172   1.058

  LCAO basis set for Cu:
    Name: dzp
    File: /groups/kemi/thorkong/miniconda3/envs/gpaw22/share/gpaw/Cu.dzp.basis.gz
    Number of radial functions: 5
    Number of spherical harmonics: 15
      l=0, rc=8.9688 Bohr: 4s-sz confined orbital
      l=2, rc=5.1719 Bohr: 3d-sz confined orbital
      l=0, rc=5.3281 Bohr: 4s-dz split-valence wave
      l=2, rc=3.1406 Bohr: 3d-dz split-valence wave
      l=1, rc=8.9688 Bohr: p-type Gaussian polarization

Cl-setup:
  name: Chlorine
  id: 726897f06f34e53cf8e33b5885a02604
  Z: 17.0
  valence: 7
  core: 10
  charge: 0.0
  file: /groups/kemi/thorkong/miniconda3/envs/gpaw22/share/gpaw/Cl.PBE.gz
  compensation charges: gauss, rc=0.25, lmax=2
  cutoffs: 1.40(filt), 1.49(core),
  valence states:
                energy  radius
    3s(2.00)   -20.689   0.794
    3p(5.00)    -8.594   0.794
    *s           6.523   0.794
    *p          18.617   0.794
    *d           0.000   0.794

  LCAO basis set for Cl:
    Name: dzp
    File: /groups/kemi/thorkong/miniconda3/envs/gpaw22/share/gpaw/Cl.dzp.basis.gz
    Number of radial functions: 5
    Number of spherical harmonics: 13
      l=0, rc=5.1719 Bohr: 3s-sz confined orbital
      l=1, rc=6.2656 Bohr: 3p-sz confined orbital
      l=0, rc=2.8281 Bohr: 3s-dz split-valence wave
      l=1, rc=3.5156 Bohr: 3p-dz split-valence wave
      l=2, rc=6.2656 Bohr: d-type Gaussian polarization

Reference energy: -3392203.925309

Spin-paired calculation

Convergence criteria:
 Maximum [total energy] change in last 3 cyles: 0.0005 eV / electron
 Maximum integral of absolute [dens]ity change: 0.0001 electrons / valence electron
 Maximum integral of absolute [eigenst]ate change: 4e-08 eV^2 / valence electron
 Maximum number of scf [iter]ations: 333
 (Square brackets indicate name in SCF output, whereas a 'c' in
 the SCF output indicates the quantity has converged.)

Symmetries present (total): 1

  ( 1  0  0)
  ( 0  1  0)
  ( 0  0  1)

16 k-points: 4 x 4 x 1 Monkhorst-Pack grid
8 k-points in the irreducible part of the Brillouin zone
       k-points in crystal coordinates                weights
   0:     0.12500000   -0.37500000    0.00000000          2/16
   1:     0.12500000   -0.12500000    0.00000000          2/16
   2:     0.12500000    0.12500000    0.00000000          2/16
   3:     0.12500000    0.37500000    0.00000000          2/16
   4:     0.37500000   -0.37500000    0.00000000          2/16
   5:     0.37500000   -0.12500000    0.00000000          2/16
   6:     0.37500000    0.12500000    0.00000000          2/16
   7:     0.37500000    0.37500000    0.00000000          2/16

Wave functions: Plane wave expansion
  Cutoff energy: 600.000 eV
  Number of coefficients (min, max): 66642, 66743
  Pulay-stress correction: 0.000000 eV/Ang^3 (de/decut=0.000000)
  Using FFTW library
  ScaLapack parameters: grid=2x2, blocksize=64
  Wavefunction extrapolation:
    Improved wavefunction reuse through dual PAW basis 

Occupation numbers: Fermi-Dirac: width=0.1000 eV
 

Eigensolver
   Davidson(niter=2) 

Densities:
  Coarse grid: 45*42*196 grid
  Fine grid: 90*84*392 grid
  Total Charge: 0.000000 

Density mixing:
  Method: separate
  Backend: pulay
  Linear mixing parameter: 0.05
  Mixing with 5 old densities
  Damping of long wave oscillations: 50 

Hamiltonian:
  XC and Coulomb potentials evaluated on a 90*84*392 grid
  Using the BEEF-vdW Exchange-Correlation functional
  External potential:
    NoExternalPotential
 

XC parameters: BEEF-vdW with 2 nearest neighbor stencil

Memory estimate:
  Process memory now: 249.50 MiB
  Calculator: 1207.67 MiB
    Density: 47.57 MiB
      Arrays: 18.37 MiB
      Localized functions: 22.13 MiB
      Mixer: 7.07 MiB
    Hamiltonian: 12.55 MiB
      Arrays: 12.01 MiB
      XC: 0.00 MiB
      Poisson: 0.00 MiB
      vbar: 0.54 MiB
    Wavefunctions: 1147.55 MiB
      Arrays psit_nG: 539.76 MiB
      Eigensolver: 587.73 MiB
      Projections: 2.94 MiB
      Projectors: 2.55 MiB
      PW-descriptor: 14.58 MiB

Total number of cores used: 32
Parallelization over k-points: 8
Domain decomposition: 1 x 1 x 4
                      2 x 2 x 8 (xc only)

Number of atoms: 84
Number of atomic orbitals: 1236
Number of bands in calculation: 530
Number of valence electrons: 876
Bands to converge: occupied

... initialized

Initializing position-dependent things.

Density initialized from atomic densities
Creating initial wave functions:
  530 bands from LCAO basis set

      .------------------.  
     /|                  |  
    / |                  |  
   /  |                  |  
  /   |                  |  
 *    |                  |  
 |    |                  |  
 |    |                  |  
 |    |                  |  
 |    |                  |  
 |    |                  |  
 |   Cl     Cl    Cl     |  
 |    |                  |  
 |    |                  |  
 |Cl  |  Cl  CuCCl   Cu  |  
 |    |                  |  
 |  CuCu   CCu   CuCu    |  
 |    |  Cu    Cu    Cu  |  
 |    |                  |  
 |Cu  Cu    CuCu   Cu    |  
 |  Cu|  CCu   CuCu  Cu  |  
 |    |                  |  
 |Cu  CuCu  CuCu   Cu    |  
 |  Cu|  CuCuCuCuCu  Cu  |  
 |    |                  |  
 |Cu  | Cu    Cu         |  
 |  CuCu CuCCu CuCuCuCu  |  
 |    |                  |  
 |Cu  |       Cu         |  
 |  CuCu CCuCu CuCuCuCu  |  
 |    |Cu    Cu    Cu    |  
 |    |                  |  
 |CuCuCuCuCuCuCuCCuCu  Cl|  
 |    |                  |  
 |    |                  |  
 |    |Cl     Cl     Cl  |  
 |    |                  |  
 |    |                  |  
 |    |                  |  
 |    |                  |  
 |    |                  |  
 |    |                  |  
 |    .------------------.  
 |   /                  /   
 |  /                  /    
 | /                  /     
 |/                  /      
 *------------------*       

Positions:
   0 Cu     2.893249   -0.009013   10.079935    ( 0.0000,  0.0000,  0.0000)
   1 Cu     1.591035    1.857611   11.262661    ( 0.0000,  0.0000,  0.0000)
   2 Cu     4.201834    1.841809   11.295676    ( 0.0000,  0.0000,  0.0000)
   3 Cu     0.277666   -0.009469   10.084997    ( 0.0000,  0.0000,  0.0000)
   4 Cu     0.277849    0.003618   12.626767    ( 0.0000,  0.0000,  0.0000)
   5 Cu     4.202668    1.862513   13.923708    ( 0.0000,  0.0000,  0.0000)
   6 Cu     1.586463    1.852775   13.921192    ( 0.0000,  0.0000,  0.0000)
   7 Cu     2.889400    0.003545   12.629227    ( 0.0000,  0.0000,  0.0000)
   8 Cu     2.895466   -0.000271   15.229461    ( 0.0000,  0.0000,  0.0000)
   9 Cu     1.588247    1.851385   16.545856    ( 0.0000,  0.0000,  0.0000)
  10 Cu     4.201591    1.852496   16.545727    ( 0.0000,  0.0000,  0.0000)
  11 Cu     0.277809    0.001734   15.236454    ( 0.0000,  0.0000,  0.0000)
  12 Cu     0.278211    0.000883   17.850829    ( 0.0000,  0.0000,  0.0000)
  13 Cu     4.204728    1.850775   19.171325    ( 0.0000,  0.0000,  0.0000)
  14 Cu     1.584458    1.852521   19.171085    ( 0.0000,  0.0000,  0.0000)
  15 Cu     2.894601    0.002325   17.849783    ( 0.0000,  0.0000,  0.0000)
  16 Cu     2.894236    0.012687   20.468701    ( 0.0000,  0.0000,  0.0000)
  17 Cu     1.584204    1.855644   21.820509    ( 0.0000,  0.0000,  0.0000)
  18 Cu     4.205662    1.855442   21.821840    ( 0.0000,  0.0000,  0.0000)
  19 Cu     0.277320    0.003097   20.469516    ( 0.0000,  0.0000,  0.0000)
  20 Cu     0.282256    0.008318   23.110120    ( 0.0000,  0.0000,  0.0000)
  21 Cu     4.232873    1.841925   24.430560    ( 0.0000,  0.0000,  0.0000)
  22 Cu     1.555398    1.844008   24.424642    ( 0.0000,  0.0000,  0.0000)
  23 Cu     2.895568   -0.008221   23.079835    ( 0.0000,  0.0000,  0.0000)
  24 Cu     2.864475    3.710782    9.962758    ( 0.0000,  0.0000,  0.0000)
  25 Cu     1.591976    5.541691   11.280182    ( 0.0000,  0.0000,  0.0000)
  26 Cu     4.202041    5.558211   11.310184    ( 0.0000,  0.0000,  0.0000)
  27 Cu     0.277822    3.707697   10.093271    ( 0.0000,  0.0000,  0.0000)
  28 Cu     0.277595    3.695861   12.630222    ( 0.0000,  0.0000,  0.0000)
  29 Cu     4.203472    5.539712   13.923294    ( 0.0000,  0.0000,  0.0000)
  30 Cu     1.585302    5.549330   13.921336    ( 0.0000,  0.0000,  0.0000)
  31 Cu     2.891979    3.696489   12.570906    ( 0.0000,  0.0000,  0.0000)
  32 Cu     2.893008    3.701406   15.220839    ( 0.0000,  0.0000,  0.0000)
  33 Cu     1.586757    5.551594   16.543688    ( 0.0000,  0.0000,  0.0000)
  34 Cu     4.203073    5.549574   16.542388    ( 0.0000,  0.0000,  0.0000)
  35 Cu     0.277652    3.699826   15.228727    ( 0.0000,  0.0000,  0.0000)
  36 Cu     0.278347    3.700871   17.844615    ( 0.0000,  0.0000,  0.0000)
  37 Cu     4.202226    5.552299   19.162667    ( 0.0000,  0.0000,  0.0000)
  38 Cu     1.587282    5.550511   19.162081    ( 0.0000,  0.0000,  0.0000)
  39 Cu     2.896094    3.699332   17.846167    ( 0.0000,  0.0000,  0.0000)
  40 Cu     2.895034    3.689744   20.468648    ( 0.0000,  0.0000,  0.0000)
  41 Cu     1.581145    5.547784   21.761122    ( 0.0000,  0.0000,  0.0000)
  42 Cu     4.208363    5.548067   21.763035    ( 0.0000,  0.0000,  0.0000)
  43 Cu     0.277513    3.699240   20.468279    ( 0.0000,  0.0000,  0.0000)
  44 Cu     0.282403    3.692379   23.126419    ( 0.0000,  0.0000,  0.0000)
  45 Cu     4.204347    5.557399   24.312269    ( 0.0000,  0.0000,  0.0000)
  46 Cu     1.585207    5.556171   24.307688    ( 0.0000,  0.0000,  0.0000)
  47 Cu     2.895682    3.707975   23.099015    ( 0.0000,  0.0000,  0.0000)
  48 Cu     6.815902    1.857266   11.266864    ( 0.0000,  0.0000,  0.0000)
  49 Cu     5.512292   -0.007627   10.084231    ( 0.0000,  0.0000,  0.0000)
  50 Cu     5.516568    0.003856   12.630858    ( 0.0000,  0.0000,  0.0000)
  51 Cu     6.820227    1.852728   13.924166    ( 0.0000,  0.0000,  0.0000)
  52 Cu     6.819210    1.851175   16.547654    ( 0.0000,  0.0000,  0.0000)
  53 Cu     5.510471    0.001413   15.229784    ( 0.0000,  0.0000,  0.0000)
  54 Cu     5.510806    0.000434   17.848219    ( 0.0000,  0.0000,  0.0000)
  55 Cu     6.820027    1.852260   19.163515    ( 0.0000,  0.0000,  0.0000)
  56 Cu     6.820094    1.855667   21.761999    ( 0.0000,  0.0000,  0.0000)
  57 Cu     5.512423    0.002682   20.470960    ( 0.0000,  0.0000,  0.0000)
  58 Cu     5.506106    0.008663   23.111884    ( 0.0000,  0.0000,  0.0000)
  59 Cu     6.819522    1.843288   24.299220    ( 0.0000,  0.0000,  0.0000)
  60 Cu     6.814604    5.542052   11.281643    ( 0.0000,  0.0000,  0.0000)
  61 Cu     5.541587    3.708289    9.968467    ( 0.0000,  0.0000,  0.0000)
  62 Cu     5.513459    3.696217   12.572367    ( 0.0000,  0.0000,  0.0000)
  63 Cu     6.820366    5.548841   13.922651    ( 0.0000,  0.0000,  0.0000)
  64 Cu     6.819498    5.551245   16.541105    ( 0.0000,  0.0000,  0.0000)
  65 Cu     5.513131    3.699586   15.221299    ( 0.0000,  0.0000,  0.0000)
  66 Cu     5.509488    3.700623   17.846432    ( 0.0000,  0.0000,  0.0000)
  67 Cu     6.819828    5.550615   19.155631    ( 0.0000,  0.0000,  0.0000)
  68 Cu     6.819845    5.546713   21.765705    ( 0.0000,  0.0000,  0.0000)
  69 Cu     5.511227    3.699174   20.471342    ( 0.0000,  0.0000,  0.0000)
  70 Cu     5.505644    3.692016   23.130762    ( 0.0000,  0.0000,  0.0000)
  71 Cu     6.819911    5.559715   24.306944    ( 0.0000,  0.0000,  0.0000)
  72 Cl     2.887818    1.790073   26.301630    ( 0.0000,  0.0000,  0.0000)
  73 Cl     4.208862    3.653676    8.090793    ( 0.0000,  0.0000,  0.0000)
  74 Cl     5.387818    5.590073   26.301630    ( 0.0000,  0.0000,  0.0000)
  75 Cl     1.608862   -0.146324    8.090793    ( 0.0000,  0.0000,  0.0000)
  76 Cl     4.308862   -0.046324    8.090793    ( 0.0000,  0.0000,  0.0000)
  77 Cl     2.887818    5.490073   26.301630    ( 0.0000,  0.0000,  0.0000)
  78 Cl     7.208862    3.753676    8.090793    ( 0.0000,  0.0000,  0.0000)
  79 Cl     0.087818    1.790073   26.301630    ( 0.0000,  0.0000,  0.0000)
  80 Cl     5.887818    1.790073   26.301630    ( 0.0000,  0.0000,  0.0000)
  81 Cl     1.508862    3.653676    8.090793    ( 0.0000,  0.0000,  0.0000)
  82 Cl     7.008862   -0.046324    8.090793    ( 0.0000,  0.0000,  0.0000)
  83 Cl     0.187818    5.490073   26.301630    ( 0.0000,  0.0000,  0.0000)

Unit cell:
           periodic     x           y           z      points  spacing
  1. axis:    yes    7.851007    0.000000    0.000000    45     0.1745
  2. axis:    yes    0.000000    7.402000    0.000000    42     0.1762
  3. axis:    yes    0.000000    0.000000   34.393512   196     0.1755

  Lengths:   7.851007   7.402000  34.393512
  Angles:   90.000000  90.000000  90.000000

Effective grid spacing dv^(1/3) = 0.1754

     iter     time        total  log10-change:
                         energy  eigst   dens
iter:   1 17:18:40 -7069.921204
iter:   2 17:20:11 -13108.090247  +2.34  -0.55
iter:   3 17:21:46 -5598.454882  +2.26  -0.28
iter:   4 17:23:17 -5952.350447  +0.87  -1.14
iter:   5 17:24:54 -6110.462810  -0.32  -1.29
iter:   6 17:26:24 -5914.347614  -1.23  -1.03
iter:   7 17:28:02 -5903.127740  -1.57  -1.40
iter:   8 17:29:25 -5964.651589  -1.06  -1.45
iter:   9 17:31:03 -5913.244741  -1.96  -1.33
iter:  10 17:32:56 -5896.359017  -1.70  -1.48
iter:  11 17:34:22 -5889.167939  -2.61  -1.58
iter:  12 17:36:03 -5888.344583  -3.24  -1.63
iter:  13 17:37:34 -5889.982450  -2.18  -1.65
iter:  14 17:39:08 -5899.612470  -1.81  -1.69
iter:  15 17:40:46 -5889.356901  -2.34  -1.70
iter:  16 17:42:57 -5888.577974  -2.66  -1.75
iter:  17 17:44:37 -5890.822899  -2.28  -1.86
iter:  18 17:45:58 -5885.662435  -2.89  -1.91
iter:  19 17:47:21 -5885.721352  -3.30  -2.12
iter:  20 17:48:46 -5885.403512c -3.90  -2.16
iter:  21 17:50:15 -5886.286990  -3.05  -2.22
iter:  22 17:51:43 -5885.906734  -4.51  -2.20
iter:  23 17:53:14 -5885.393268  -3.45  -2.25
iter:  24 17:54:38 -5885.252743  -3.56  -2.33
iter:  25 17:56:39 -5885.165491c -4.19  -2.52
iter:  26 17:59:08 -5885.127818c -4.48  -2.61
iter:  27 18:00:45 -5885.646209  -3.89  -2.63
iter:  28 18:02:15 -5885.456020  -5.11  -2.36
iter:  29 18:03:56 -5886.114367  -4.31  -2.42
iter:  30 18:05:26 -5885.958208  -4.93  -2.25
iter:  31 18:06:57 -5885.283024  -4.23  -2.28
iter:  32 18:08:40 -5885.232503  -3.69  -2.53
iter:  33 18:10:31 -5885.127051c -4.54  -2.58
iter:  34 18:11:58 -5885.117763c -5.08  -2.74
iter:  35 18:13:26 -5885.209884c -4.16  -2.76
iter:  36 18:15:21 -5885.109094c -5.10  -2.65
iter:  37 18:16:49 -5885.088908c -5.12  -2.82
iter:  38 18:18:16 -5885.086758c -5.69  -2.85
iter:  39 18:19:54 -5885.086173c -5.39  -2.83
iter:  40 18:21:33 -5885.082236c -4.63  -2.82
iter:  41 18:23:00 -5885.147826c -4.89  -2.84
iter:  42 18:24:45 -5885.102277c -4.47  -2.73
iter:  43 18:26:13 -5885.087578c -4.72  -2.83
iter:  44 18:27:47 -5885.081575c -4.88  -2.93
iter:  45 18:29:14 -5885.079984c -4.84  -2.97
iter:  46 18:30:43 -5885.074696c -4.61  -3.05
iter:  47 18:32:14 -5885.071446c -4.89  -3.23
iter:  48 18:33:54 -5885.069894c -5.67  -3.42
iter:  49 18:35:22 -5885.069103c -6.21  -3.51
iter:  50 18:37:05 -5885.069221c -6.11  -3.56
iter:  51 18:39:26 -5885.069976c -6.22  -3.60
iter:  52 18:41:04 -5885.069612c -6.28  -3.64
iter:  53 18:42:30 -5885.069999c -5.89  -3.61
iter:  54 18:43:57 -5885.069764c -7.08  -3.83
iter:  55 18:45:31 -5885.069782c -6.27  -3.96
iter:  56 18:47:16 -5885.069962c -6.98  -4.17c
iter:  57 18:49:45 -5885.070052c -7.91c -4.54c

Converged after 57 iterations.

Dipole moment: (-81.234586, 17.365411, 0.108683) |e|*Ang

Energy contributions relative to reference atoms: (reference = -3392203.925309)

Kinetic:       +647.009181
Potential:     -684.125143
External:        +0.000000
XC:            -5846.672302
Entropy (-ST):   -0.903826
Local:           -0.829875
--------------------------
Free energy:   -5885.521965
Extrapolated:  -5885.070052

Showing only first 2 kpts
 Kpt  Band  Eigenvalues  Occupancy
  0   436      1.30630    0.63563
  0   437      1.34322    0.48719
  0   438      1.42843    0.24153
  0   439      1.69800    0.01837

  1   436      0.93989    1.89571
  1   437      0.97208    1.85890
  1   438      1.21950    1.05203
  1   439      1.24487    0.92537


Fermi level: 1.22991

No gap

Forces in eV/Ang:
  0 Cu    0.09739    0.01215   -0.33265
  1 Cu    0.00552   -0.04080    0.46811
  2 Cu    0.00731    0.11670    0.22806
  3 Cu    0.09002    0.03178    0.10828
  4 Cu    0.00358   -0.00612   -0.17454
  5 Cu    0.00059   -0.00771    0.05261
  6 Cu    0.01002    0.00529    0.08393
  7 Cu    0.01484    0.00081   -0.15363
  8 Cu    0.00312   -0.00067   -0.05535
  9 Cu   -0.01117   -0.00274    0.05128
 10 Cu    0.01089   -0.00389    0.03704
 11 Cu   -0.00070   -0.00342   -0.09522
 12 Cu    0.00059   -0.00044   -0.06298
 13 Cu    0.00663    0.00026    0.05508
 14 Cu   -0.00503   -0.00437    0.05984
 15 Cu    0.00053   -0.00410   -0.05019
 16 Cu    0.00144   -0.00634   -0.06362
 17 Cu    0.00415   -0.00182    0.05810
 18 Cu   -0.00387   -0.00746    0.05347
 19 Cu    0.01305    0.00120   -0.08129
 20 Cu    0.01395   -0.04700   -0.44363
 21 Cu   -0.26839    0.01387   -0.27900
 22 Cu    0.34736    0.01103   -0.47143
 23 Cu   -0.01251    0.11248   -0.20862
 24 Cu    0.37263   -0.00038    0.53754
 25 Cu    0.00885    0.03507    0.46376
 26 Cu    0.01305   -0.13710    0.22143
 27 Cu    0.10346   -0.02753    1.10927
 28 Cu    0.00357    0.01014   -0.16806
 29 Cu   -0.00178    0.00880    0.06171
 30 Cu    0.01360   -0.00257    0.08381
 31 Cu    0.00867    0.01054   -0.05749
 32 Cu   -0.00610    0.00012   -0.06093
 33 Cu    0.00188   -0.00092    0.05377
 34 Cu   -0.00057    0.00411    0.05031
 35 Cu    0.00172    0.00306   -0.05273
 36 Cu    0.00067    0.00045   -0.04415
 37 Cu   -0.00304   -0.00059    0.05635
 38 Cu    0.00349    0.00317    0.05840
 39 Cu   -0.01063    0.00401   -0.03912
 40 Cu    0.00039    0.00760   -0.05501
 41 Cu    0.01252    0.00599    0.15547
 42 Cu   -0.01518    0.00186    0.15808
 43 Cu    0.01160    0.00018   -0.07447
 44 Cu   -0.00140    0.02933   -0.45295
 45 Cu   -0.08840   -0.00071    0.01958
 46 Cu   -0.02102    0.00484    0.34958
 47 Cu   -0.00208   -0.12167   -0.24303
 48 Cu   -0.00637   -0.04349    0.44378
 49 Cu    0.03363    0.00910   -0.29940
 50 Cu   -0.00666   -0.00840   -0.15528
 51 Cu   -0.01161    0.00399    0.07535
 52 Cu    0.00077    0.00041    0.04401
 53 Cu   -0.00172   -0.00241   -0.05754
 54 Cu   -0.00023    0.00121   -0.05385
 55 Cu   -0.00074   -0.00272    0.05388
 56 Cu    0.00146   -0.00840    0.17209
 57 Cu   -0.01374    0.00455   -0.08218
 58 Cu   -0.00566   -0.05014   -0.43792
 59 Cu    0.06423    0.05453   -1.47903
 60 Cu   -0.01097    0.02311    0.44759
 61 Cu   -0.18508   -0.00664    0.13481
 62 Cu    0.00070    0.00202   -0.05426
 63 Cu   -0.01290   -0.00305    0.07629
 64 Cu   -0.00104   -0.00052    0.05994
 65 Cu    0.00504    0.00597   -0.06093
 66 Cu    0.01011    0.00193   -0.05237
 67 Cu   -0.00044    0.00348    0.08858
 68 Cu   -0.00158    0.00927    0.16688
 69 Cu   -0.01093   -0.00256   -0.08197
 70 Cu   -0.00192    0.02577   -0.45462
 71 Cu   -0.04139   -0.00833    0.21487
 72 Cl    0.29182   -0.00036    0.29871
 73 Cl    0.53850   -0.01239   -0.30251
 74 Cl    0.70931    0.00583    0.31709
 75 Cl    1.03760    0.00833   -0.24103
 76 Cl   -0.07459    0.01700   -0.00872
 77 Cl   -0.81912   -0.03471    0.16013
 78 Cl   -3.24532    0.06983   -1.19198
 79 Cl    3.29270   -0.02068    1.26306
 80 Cl   -3.70289    0.03208    1.44061
 81 Cl    2.39933   -0.17986   -1.04169
 82 Cl   -1.20398    0.11106   -0.36741
 83 Cl    0.24960   -0.01362    0.11233

System changes: positions 

Initializing position-dependent things.

Density initialized from wave functions
      .------------------.  
     /|                  |  
    / |                  |  
   /  |                  |  
  /   |                  |  
 *    |                  |  
 |    |                  |  
 |    |                  |  
 |    |                  |  
 |    |                  |  
 |    |                  |  
 |   Cl     Cl    Cl     |  
 |    |                  |  
 |    |                  |  
 | Cl |  Cl  CuCCl   Cu  |  
 |    |                  |  
 |  CuCu   CCu   CuCu    |  
 |    |  Cu    Cu    Cu  |  
 |    |                  |  
 |Cu  Cu    CuCu   Cu    |  
 |  Cu|  CCu   CuCu  Cu  |  
 |    |                  |  
 |Cu  CuCu  CuCu   Cu    |  
 |  Cu|  CuCuCuCuCu  Cu  |  
 |    |                  |  
 |Cu  | Cu    Cu         |  
 |  CuCu CuCCu CuCuCuCu  |  
 |    |                  |  
 |Cu  |       Cu         |  
 |  CuCu CCuCu CuCuCuCu  |  
 |    |Cu    Cu    Cu    |  
 |    |                  |  
 |CuCuCuCuCuCuCuCCuCu  Cl|  
 |    |                  |  
 |    |                  |  
 |    |Cl     Cl     Cl  |  
 |    |                  |  
 |    |                  |  
 |    |                  |  
 |    |                  |  
 |    |                  |  
 |    |                  |  
 |    .------------------.  
 |   /                  /   
 |  /                  /    
 | /                  /     
 |/                  /      
 *------------------*       

Positions:
   0 Cu     2.898151   -0.008402   10.063191    ( 0.0000,  0.0000,  0.0000)
   1 Cu     1.591313    1.855557   11.286224    ( 0.0000,  0.0000,  0.0000)
   2 Cu     4.202202    1.847683   11.307155    ( 0.0000,  0.0000,  0.0000)
   3 Cu     0.282197   -0.007869   10.090447    ( 0.0000,  0.0000,  0.0000)
   4 Cu     0.278029    0.003310   12.617981    ( 0.0000,  0.0000,  0.0000)
   5 Cu     4.202698    1.862125   13.926356    ( 0.0000,  0.0000,  0.0000)
   6 Cu     1.586967    1.853041   13.925417    ( 0.0000,  0.0000,  0.0000)
   7 Cu     2.890147    0.003586   12.621494    ( 0.0000,  0.0000,  0.0000)
   8 Cu     2.895623   -0.000305   15.226675    ( 0.0000,  0.0000,  0.0000)
   9 Cu     1.587685    1.851247   16.548437    ( 0.0000,  0.0000,  0.0000)
  10 Cu     4.202139    1.852300   16.547592    ( 0.0000,  0.0000,  0.0000)
  11 Cu     0.277774    0.001562   15.231661    ( 0.0000,  0.0000,  0.0000)
  12 Cu     0.278241    0.000861   17.847659    ( 0.0000,  0.0000,  0.0000)
  13 Cu     4.205062    1.850788   19.174097    ( 0.0000,  0.0000,  0.0000)
  14 Cu     1.584205    1.852301   19.174097    ( 0.0000,  0.0000,  0.0000)
  15 Cu     2.894628    0.002119   17.847257    ( 0.0000,  0.0000,  0.0000)
  16 Cu     2.894308    0.012368   20.465499    ( 0.0000,  0.0000,  0.0000)
  17 Cu     1.584413    1.855552   21.823433    ( 0.0000,  0.0000,  0.0000)
  18 Cu     4.205467    1.855067   21.824531    ( 0.0000,  0.0000,  0.0000)
  19 Cu     0.277977    0.003158   20.465424    ( 0.0000,  0.0000,  0.0000)
  20 Cu     0.282958    0.005952   23.087790    ( 0.0000,  0.0000,  0.0000)
  21 Cu     4.219364    1.842623   24.416517    ( 0.0000,  0.0000,  0.0000)
  22 Cu     1.572882    1.844563   24.400913    ( 0.0000,  0.0000,  0.0000)
  23 Cu     2.894938   -0.002559   23.069334    ( 0.0000,  0.0000,  0.0000)
  24 Cu     2.883231    3.710763    9.989815    ( 0.0000,  0.0000,  0.0000)
  25 Cu     1.592421    5.543456   11.303526    ( 0.0000,  0.0000,  0.0000)
  26 Cu     4.202698    5.551310   11.321330    ( 0.0000,  0.0000,  0.0000)
  27 Cu     0.283030    3.706311   10.149106    ( 0.0000,  0.0000,  0.0000)
  28 Cu     0.277775    3.696371   12.621763    ( 0.0000,  0.0000,  0.0000)
  29 Cu     4.203382    5.540155   13.926400    ( 0.0000,  0.0000,  0.0000)
  30 Cu     1.585986    5.549201   13.925554    ( 0.0000,  0.0000,  0.0000)
  31 Cu     2.892416    3.697019   12.568012    ( 0.0000,  0.0000,  0.0000)
  32 Cu     2.892701    3.701412   15.217772    ( 0.0000,  0.0000,  0.0000)
  33 Cu     1.586852    5.551548   16.546394    ( 0.0000,  0.0000,  0.0000)
  34 Cu     4.203044    5.549781   16.544920    ( 0.0000,  0.0000,  0.0000)
  35 Cu     0.277738    3.699980   15.226073    ( 0.0000,  0.0000,  0.0000)
  36 Cu     0.278381    3.700894   17.842393    ( 0.0000,  0.0000,  0.0000)
  37 Cu     4.202073    5.552269   19.165503    ( 0.0000,  0.0000,  0.0000)
  38 Cu     1.587457    5.550670   19.165020    ( 0.0000,  0.0000,  0.0000)
  39 Cu     2.895559    3.699534   17.844198    ( 0.0000,  0.0000,  0.0000)
  40 Cu     2.895053    3.690127   20.465879    ( 0.0000,  0.0000,  0.0000)
  41 Cu     1.581775    5.548085   21.768948    ( 0.0000,  0.0000,  0.0000)
  42 Cu     4.207599    5.548161   21.770992    ( 0.0000,  0.0000,  0.0000)
  43 Cu     0.278097    3.699249   20.464530    ( 0.0000,  0.0000,  0.0000)
  44 Cu     0.282332    3.693855   23.103620    ( 0.0000,  0.0000,  0.0000)
  45 Cu     4.199898    5.557363   24.313255    ( 0.0000,  0.0000,  0.0000)
  46 Cu     1.584149    5.556415   24.325284    ( 0.0000,  0.0000,  0.0000)
  47 Cu     2.895577    3.701851   23.086782    ( 0.0000,  0.0000,  0.0000)
  48 Cu     6.815582    1.855077   11.289202    ( 0.0000,  0.0000,  0.0000)
  49 Cu     5.513985   -0.007169   10.069161    ( 0.0000,  0.0000,  0.0000)
  50 Cu     5.516233    0.003433   12.623042    ( 0.0000,  0.0000,  0.0000)
  51 Cu     6.819643    1.852929   13.927959    ( 0.0000,  0.0000,  0.0000)
  52 Cu     6.819249    1.851196   16.549869    ( 0.0000,  0.0000,  0.0000)
  53 Cu     5.510384    0.001292   15.226888    ( 0.0000,  0.0000,  0.0000)
  54 Cu     5.510794    0.000495   17.845508    ( 0.0000,  0.0000,  0.0000)
  55 Cu     6.819990    1.852123   19.166227    ( 0.0000,  0.0000,  0.0000)
  56 Cu     6.820168    1.855244   21.770661    ( 0.0000,  0.0000,  0.0000)
  57 Cu     5.511731    0.002911   20.466824    ( 0.0000,  0.0000,  0.0000)
  58 Cu     5.505821    0.006139   23.089841    ( 0.0000,  0.0000,  0.0000)
  59 Cu     6.822755    1.846033   24.224773    ( 0.0000,  0.0000,  0.0000)
  60 Cu     6.814052    5.543215   11.304172    ( 0.0000,  0.0000,  0.0000)
  61 Cu     5.532271    3.707955    9.975253    ( 0.0000,  0.0000,  0.0000)
  62 Cu     5.513494    3.696319   12.569636    ( 0.0000,  0.0000,  0.0000)
  63 Cu     6.819717    5.548687   13.926491    ( 0.0000,  0.0000,  0.0000)
  64 Cu     6.819445    5.551219   16.544122    ( 0.0000,  0.0000,  0.0000)
  65 Cu     5.513385    3.699887   15.218232    ( 0.0000,  0.0000,  0.0000)
  66 Cu     5.509997    3.700720   17.843796    ( 0.0000,  0.0000,  0.0000)
  67 Cu     6.819806    5.550790   19.160090    ( 0.0000,  0.0000,  0.0000)
  68 Cu     6.819766    5.547180   21.774105    ( 0.0000,  0.0000,  0.0000)
  69 Cu     5.510677    3.699045   20.467216    ( 0.0000,  0.0000,  0.0000)
  70 Cu     5.505547    3.693313   23.107879    ( 0.0000,  0.0000,  0.0000)
  71 Cu     6.817828    5.559296   24.317760    ( 0.0000,  0.0000,  0.0000)
  72 Cl     2.902507    1.790055   26.316666    ( 0.0000,  0.0000,  0.0000)
  73 Cl     4.235968    3.653052    8.075566    ( 0.0000,  0.0000,  0.0000)
  74 Cl     5.423521    5.590366   26.317591    ( 0.0000,  0.0000,  0.0000)
  75 Cl     1.661090   -0.145905    8.078661    ( 0.0000,  0.0000,  0.0000)
  76 Cl     4.305108   -0.045468    8.090354    ( 0.0000,  0.0000,  0.0000)
  77 Cl     2.846587    5.488326   26.309690    ( 0.0000,  0.0000,  0.0000)
  78 Cl     7.045509    3.757191    8.030795    ( 0.0000,  0.0000,  0.0000)
  79 Cl     0.253556    1.789032   26.365206    ( 0.0000,  0.0000,  0.0000)
  80 Cl     5.701433    1.791688   26.374143    ( 0.0000,  0.0000,  0.0000)
  81 Cl     1.629632    3.644623    8.038360    ( 0.0000,  0.0000,  0.0000)
  82 Cl     6.948260   -0.040734    8.072299    ( 0.0000,  0.0000,  0.0000)
  83 Cl     0.200382    5.489387   26.307284    ( 0.0000,  0.0000,  0.0000)

Unit cell:
           periodic     x           y           z      points  spacing
  1. axis:    yes    7.851007    0.000000    0.000000    45     0.1745
  2. axis:    yes    0.000000    7.402000    0.000000    42     0.1762
  3. axis:    yes    0.000000    0.000000   34.393512   196     0.1755

  Lengths:   7.851007   7.402000  34.393512
  Angles:   90.000000  90.000000  90.000000

Effective grid spacing dv^(1/3) = 0.1754

     iter     time        total  log10-change:
                         energy  eigst   dens
iter:   1 18:52:28 -5905.945022  -1.35
iter:   2 18:53:57 -5903.477185  -1.45  -1.72
iter:   3 18:55:30 -5903.107168  -1.80  -1.67
iter:   4 18:57:04 -5890.433313  -2.42  -1.73
iter:   5 18:58:41 -5888.146073  -3.04  -2.05
iter:   6 19:00:14 -5887.742363  -2.80  -2.27
iter:   7 19:01:40 -5890.459267  -3.15  -2.28
iter:   8 19:03:16 -5888.179472  -2.65  -2.02
iter:   9 19:04:43 -5887.515814  -3.00  -2.26
iter:  10 19:06:15 -5887.543034  -4.29  -2.34
iter:  11 19:07:45 -5886.907549  -3.82  -2.34
iter:  12 19:09:17 -5886.896323  -4.60  -2.68
iter:  13 19:10:57 -5886.843776c -4.37  -2.71
iter:  14 19:12:29 -5886.905277c -4.30  -2.76
iter:  15 19:14:13 -5886.834115c -4.61  -2.73
iter:  16 19:15:48 -5886.822648c -4.08  -2.91
iter:  17 19:17:23 -5886.889440c -4.34  -2.88
iter:  18 19:18:53 -5886.822710c -5.07  -2.75
iter:  19 19:20:21 -5886.835910c -4.63  -3.05
iter:  20 19:21:50 -5886.810460c -4.95  -2.98
iter:  21 19:23:21 -5886.813037c -5.55  -3.39
iter:  22 19:24:57 -5886.803530c -5.63  -3.36
iter:  23 19:26:29 -5886.807814c -6.14  -3.60
iter:  24 19:27:57 -5886.807519c -6.08  -3.63
iter:  25 19:29:42 -5886.805343c -5.94  -3.76
iter:  26 19:31:35 -5886.805615c -6.13  -3.62
iter:  27 19:33:27 -5886.805355c -6.93  -4.11c
iter:  28 19:34:53 -5886.805135c -7.71c -4.35c

Converged after 28 iterations.

Dipole moment: (-92.147244, 17.216648, 0.003813) |e|*Ang

Energy contributions relative to reference atoms: (reference = -3392203.925309)

Kinetic:       +630.654523
Potential:     -673.051049
External:        +0.000000
XC:            -5843.151470
Entropy (-ST):   -0.901804
Local:           -0.806237
--------------------------
Free energy:   -5887.256037
Extrapolated:  -5886.805135

Showing only first 2 kpts
 Kpt  Band  Eigenvalues  Occupancy
  0   436      1.09820    0.49298
  0   437      1.10722    0.46022
  0   438      1.22465    0.16912
  0   439      1.46523    0.01652

  1   436      0.73750    1.84682
  1   437      0.74559    1.83496
  1   438      1.00656    0.89984
  1   439      1.02696    0.80018


Fermi level: 0.98646

No gap

Forces in eV/Ang:
  0 Cu    0.05584    0.01128   -0.23699
  1 Cu    0.03415   -0.07308    0.35580
  2 Cu    0.01819    0.04813    0.17734
  3 Cu    0.03885    0.01015   -0.28736
  4 Cu    0.00188   -0.00468   -0.08125
  5 Cu    0.00003   -0.01197    0.05236
  6 Cu    0.00722    0.00136    0.07527
  7 Cu    0.02737    0.00002   -0.12486
  8 Cu    0.00285    0.00141   -0.04222
  9 Cu   -0.00648   -0.00265    0.03723
 10 Cu    0.00540   -0.00117    0.02870
 11 Cu   -0.00028   -0.00322   -0.06837
 12 Cu   -0.00079   -0.00129   -0.04466
 13 Cu    0.00138    0.00201    0.03811
 14 Cu   -0.00019   -0.00345    0.04023
 15 Cu    0.00125   -0.00187   -0.03600
 16 Cu    0.00140   -0.01152   -0.05908
 17 Cu    0.00104   -0.00258   -0.02317
 18 Cu   -0.00168   -0.00745   -0.00624
 19 Cu    0.00898   -0.00111   -0.07623
 20 Cu    0.03039   -0.09584   -0.33459
 21 Cu    0.03406    0.00593    0.07611
 22 Cu    0.06017    0.00106   -0.02116
 23 Cu   -0.00886    0.05600   -0.16478
 24 Cu    0.12921   -0.00858    0.11824
 25 Cu    0.03225    0.07511    0.34036
 26 Cu    0.02142   -0.05826    0.16845
 27 Cu   -0.02601   -0.01210   -0.50595
 28 Cu    0.00248    0.00522    0.05146
 29 Cu   -0.00137    0.01382    0.05795
 30 Cu    0.00911    0.00121    0.07697
 31 Cu    0.00704    0.00568    0.02757
 32 Cu   -0.00098   -0.00213   -0.03951
 33 Cu   -0.00013    0.00008    0.03777
 34 Cu   -0.00050    0.00179    0.03630
 35 Cu    0.00143    0.00274   -0.03093
 36 Cu   -0.00046    0.00096   -0.02484
 37 Cu   -0.00252   -0.00165    0.04509
 38 Cu    0.00291    0.00299    0.04502
 39 Cu   -0.00538    0.00154   -0.02857
 40 Cu    0.00015    0.01243   -0.05386
 41 Cu    0.02485    0.00397    0.12498
 42 Cu   -0.02574    0.00108    0.09388
 43 Cu    0.00800    0.00255   -0.06662
 44 Cu    0.02568    0.09240   -0.35438
 45 Cu   -0.03507   -0.00362    0.25447
 46 Cu   -0.03916    0.00327    0.25806
 47 Cu   -0.00273   -0.06052   -0.19493
 48 Cu   -0.02200   -0.06416    0.33481
 49 Cu    0.09116    0.00727   -0.23001
 50 Cu   -0.02064   -0.00764   -0.12136
 51 Cu   -0.00741    0.00089    0.06386
 52 Cu    0.00169   -0.00038    0.02519
 53 Cu   -0.00213   -0.00192   -0.04257
 54 Cu    0.00044    0.00018   -0.03623
 55 Cu   -0.00049   -0.00240    0.03279
 56 Cu    0.00076   -0.00714   -0.10347
 57 Cu   -0.00966    0.00103   -0.07573
 58 Cu   -0.02344   -0.08186   -0.32930
 59 Cu   -0.02483   -0.00564    0.61671
 60 Cu   -0.02080    0.05253    0.32560
 61 Cu    0.05267   -0.00237   -0.05021
 62 Cu   -0.00039   -0.00098   -0.00160
 63 Cu   -0.00790    0.00092    0.07161
 64 Cu    0.00087    0.00074    0.04429
 65 Cu   -0.00014    0.00457   -0.03831
 66 Cu    0.00610    0.00209   -0.03642
 67 Cu   -0.00034    0.00296    0.06763
 68 Cu   -0.00129    0.00623    0.11273
 69 Cu   -0.00715    0.00090   -0.07469
 70 Cu   -0.02583    0.07202   -0.35723
 71 Cu   -0.05480   -0.00624    0.26905
 72 Cl    0.36294   -0.00274    0.19747
 73 Cl    0.50227   -0.00748   -0.23260
 74 Cl    0.23488   -0.02635    0.06855
 75 Cl    0.19022    0.03008   -0.08205
 76 Cl   -0.07543    0.01657   -0.09501
 77 Cl   -0.19337   -0.01592    0.08021
 78 Cl   -1.11580   -0.02133   -0.00355
 79 Cl    0.74477    0.00009    0.16394
 80 Cl   -1.16780    0.07206   -0.01559
 81 Cl    0.41875   -0.09871   -0.28125
 82 Cl   -0.33612    0.09518   -0.06706
 83 Cl    0.08825   -0.01165    0.05560

System changes: positions 

Initializing position-dependent things.

Density initialized from wave functions
      .------------------.  
     /|                  |  
    / |                  |  
   /  |                  |  
  /   |                  |  
 *    |                  |  
 |    |                  |  
 |    |                  |  
 |    |                  |  
 |    |                  |  
 |    |                  |  
 |   Cl     Cl    Cl     |  
 |    |                  |  
 |    |                  |  
 | Cl |CuCl    CCl CuCu  |  
 |    |                  |  
 |  CuCu   CCu   CuCu    |  
 |    |  Cu    Cu    Cu  |  
 |    |                  |  
 |    CuCu  Cu     Cu    |  
 |  Cu|  CuCu  CuCu  Cu  |  
 |    |                  |  
 |Cu  CuCu  CuCu   Cu    |  
 |  Cu|  CuCuCuCuCu  Cu  |  
 |    |                  |  
 |Cu  | Cu    Cu         |  
 |  CuCu CuCCu CuCuCuCu  |  
 |    |                  |  
 |Cu  |       Cu         |  
 |  CuCu CCuCu CuCuCuCu  |  
 |    |Cu    Cu    Cu    |  
 |    |                  |  
 |CuCuCuCuCCCuCuCCuCu  Cl|  
 |    |                  |  
 |    |                  |  
 |    |Cl     Cl    Cl   |  
 |    |                  |  
 |    |                  |  
 |    |                  |  
 |    |                  |  
 |    |                  |  
 |    |                  |  
 |    .------------------.  
 |   /                  /   
 |  /                  /    
 | /                  /     
 |/                  /      
 *------------------*       

Positions:
   0 Cu     2.904914   -0.006991   10.034019    ( 0.0000,  0.0000,  0.0000)
   1 Cu     1.595763    1.846203   11.330203    ( 0.0000,  0.0000,  0.0000)
   2 Cu     4.204547    1.853323   11.329107    ( 0.0000,  0.0000,  0.0000)
   3 Cu     0.286774   -0.006722   10.052101    ( 0.0000,  0.0000,  0.0000)
   4 Cu     0.278255    0.002731   12.608331    ( 0.0000,  0.0000,  0.0000)
   5 Cu     4.202699    1.860599   13.932923    ( 0.0000,  0.0000,  0.0000)
   6 Cu     1.587857    1.853190   13.934808    ( 0.0000,  0.0000,  0.0000)
   7 Cu     2.893653    0.003584   12.605998    ( 0.0000,  0.0000,  0.0000)
   8 Cu     2.895979   -0.000115   15.221455    ( 0.0000,  0.0000,  0.0000)
   9 Cu     1.586899    1.850916   16.553025    ( 0.0000,  0.0000,  0.0000)
  10 Cu     4.202785    1.852169   16.551143    ( 0.0000,  0.0000,  0.0000)
  11 Cu     0.277741    0.001159   15.223241    ( 0.0000,  0.0000,  0.0000)
  12 Cu     0.278133    0.000694   17.842163    ( 0.0000,  0.0000,  0.0000)
  13 Cu     4.205205    1.851050   19.178779    ( 0.0000,  0.0000,  0.0000)
  14 Cu     1.584209    1.851874   19.179030    ( 0.0000,  0.0000,  0.0000)
  15 Cu     2.894789    0.001897   17.842824    ( 0.0000,  0.0000,  0.0000)
  16 Cu     2.894483    0.010892   20.458114    ( 0.0000,  0.0000,  0.0000)
  17 Cu     1.584525    1.855225   21.820055    ( 0.0000,  0.0000,  0.0000)
  18 Cu     4.205269    1.854132   21.823402    ( 0.0000,  0.0000,  0.0000)
  19 Cu     0.279080    0.003005   20.455891    ( 0.0000,  0.0000,  0.0000)
  20 Cu     0.286865   -0.006354   23.046452    ( 0.0000,  0.0000,  0.0000)
  21 Cu     4.225394    1.843320   24.428128    ( 0.0000,  0.0000,  0.0000)
  22 Cu     1.578761    1.844638   24.400876    ( 0.0000,  0.0000,  0.0000)
  23 Cu     2.893847    0.004138   23.048919    ( 0.0000,  0.0000,  0.0000)
  24 Cu     2.898026    3.709640   10.002210    ( 0.0000,  0.0000,  0.0000)
  25 Cu     1.596603    5.553110   11.345504    ( 0.0000,  0.0000,  0.0000)
  26 Cu     4.205434    5.544460   11.342153    ( 0.0000,  0.0000,  0.0000)
  27 Cu     0.279014    3.704883   10.076251    ( 0.0000,  0.0000,  0.0000)
  28 Cu     0.278079    3.696998   12.629493    ( 0.0000,  0.0000,  0.0000)
  29 Cu     4.203213    5.541918   13.933648    ( 0.0000,  0.0000,  0.0000)
  30 Cu     1.587104    5.549375   13.935170    ( 0.0000,  0.0000,  0.0000)
  31 Cu     2.893289    3.697703   12.571965    ( 0.0000,  0.0000,  0.0000)
  32 Cu     2.892608    3.701132   15.212941    ( 0.0000,  0.0000,  0.0000)
  33 Cu     1.586824    5.551563   16.551039    ( 0.0000,  0.0000,  0.0000)
  34 Cu     4.202981    5.549991   16.549392    ( 0.0000,  0.0000,  0.0000)
  35 Cu     0.277916    3.700322   15.222320    ( 0.0000,  0.0000,  0.0000)
  36 Cu     0.278316    3.701018   17.839389    ( 0.0000,  0.0000,  0.0000)
  37 Cu     4.201760    5.552056   19.171094    ( 0.0000,  0.0000,  0.0000)
  38 Cu     1.587819    5.551045   19.170590    ( 0.0000,  0.0000,  0.0000)
  39 Cu     2.894914    3.699713   17.840676    ( 0.0000,  0.0000,  0.0000)
  40 Cu     2.895070    3.691715   20.459130    ( 0.0000,  0.0000,  0.0000)
  41 Cu     1.584964    5.548571   21.784448    ( 0.0000,  0.0000,  0.0000)
  42 Cu     4.204309    5.548291   21.782395    ( 0.0000,  0.0000,  0.0000)
  43 Cu     0.279079    3.699583   20.456220    ( 0.0000,  0.0000,  0.0000)
  44 Cu     0.285711    3.705813   23.059739    ( 0.0000,  0.0000,  0.0000)
  45 Cu     4.195808    5.556892   24.346540    ( 0.0000,  0.0000,  0.0000)
  46 Cu     1.579131    5.556816   24.357124    ( 0.0000,  0.0000,  0.0000)
  47 Cu     2.895232    3.694614   23.062610    ( 0.0000,  0.0000,  0.0000)
  48 Cu     6.812731    1.846909   11.330567    ( 0.0000,  0.0000,  0.0000)
  49 Cu     5.525755   -0.006267   10.040711    ( 0.0000,  0.0000,  0.0000)
  50 Cu     5.513563    0.002479   12.608016    ( 0.0000,  0.0000,  0.0000)
  51 Cu     6.818738    1.853023   13.935903    ( 0.0000,  0.0000,  0.0000)
  52 Cu     6.819466    1.851144   16.552920    ( 0.0000,  0.0000,  0.0000)
  53 Cu     5.510114    0.001053   15.221634    ( 0.0000,  0.0000,  0.0000)
  54 Cu     5.510853    0.000512   17.841066    ( 0.0000,  0.0000,  0.0000)
  55 Cu     6.819930    1.851824   19.170218    ( 0.0000,  0.0000,  0.0000)
  56 Cu     6.820259    1.854356   21.756080    ( 0.0000,  0.0000,  0.0000)
  57 Cu     5.510543    0.003020   20.457362    ( 0.0000,  0.0000,  0.0000)
  58 Cu     5.502777   -0.004315   23.049165    ( 0.0000,  0.0000,  0.0000)
  59 Cu     6.819122    1.844976   24.314313    ( 0.0000,  0.0000,  0.0000)
  60 Cu     6.811386    5.549976   11.344308    ( 0.0000,  0.0000,  0.0000)
  61 Cu     5.540260    3.707682    9.967879    ( 0.0000,  0.0000,  0.0000)
  62 Cu     5.513439    3.696178   12.569741    ( 0.0000,  0.0000,  0.0000)
  63 Cu     6.818755    5.548825   13.935447    ( 0.0000,  0.0000,  0.0000)
  64 Cu     6.819565    5.551318   16.549587    ( 0.0000,  0.0000,  0.0000)
  65 Cu     5.513338    3.700452   15.213558    ( 0.0000,  0.0000,  0.0000)
  66 Cu     5.510738    3.700983   17.839320    ( 0.0000,  0.0000,  0.0000)
  67 Cu     6.819764    5.551159   19.168452    ( 0.0000,  0.0000,  0.0000)
  68 Cu     6.819605    5.547944   21.787931    ( 0.0000,  0.0000,  0.0000)
  69 Cu     5.509802    3.699178   20.457889    ( 0.0000,  0.0000,  0.0000)
  70 Cu     5.502169    3.702617   23.063633    ( 0.0000,  0.0000,  0.0000)
  71 Cu     6.810876    5.558525   24.351825    ( 0.0000,  0.0000,  0.0000)
  72 Cl     2.948447    1.789697   26.340849    ( 0.0000,  0.0000,  0.0000)
  73 Cl     4.298763    3.652142    8.046795    ( 0.0000,  0.0000,  0.0000)
  74 Cl     5.450228    5.586873   26.324745    ( 0.0000,  0.0000,  0.0000)
  75 Cl     1.680026   -0.142005    8.069292    ( 0.0000,  0.0000,  0.0000)
  76 Cl     4.295640   -0.043392    8.077935    ( 0.0000,  0.0000,  0.0000)
  77 Cl     2.825967    5.486438   26.319288    ( 0.0000,  0.0000,  0.0000)
  78 Cl     6.917916    3.753986    8.037255    ( 0.0000,  0.0000,  0.0000)
  79 Cl     0.332173    1.789164   26.379384    ( 0.0000,  0.0000,  0.0000)
  80 Cl     5.569674    1.800959   26.363724    ( 0.0000,  0.0000,  0.0000)
  81 Cl     1.670651    3.632713    8.007499    ( 0.0000,  0.0000,  0.0000)
  82 Cl     6.911139   -0.028886    8.065633    ( 0.0000,  0.0000,  0.0000)
  83 Cl     0.210515    5.487937   26.313929    ( 0.0000,  0.0000,  0.0000)

Unit cell:
           periodic     x           y           z      points  spacing
  1. axis:    yes    7.851007    0.000000    0.000000    45     0.1745
  2. axis:    yes    0.000000    7.402000    0.000000    42     0.1762
  3. axis:    yes    0.000000    0.000000   34.393512   196     0.1755

  Lengths:   7.851007   7.402000  34.393512
  Angles:   90.000000  90.000000  90.000000

Effective grid spacing dv^(1/3) = 0.1754

     iter     time        total  log10-change:
                         energy  eigst   dens
iter:   1 19:37:07 -5893.314442  -1.75
iter:   2 19:38:41 -5896.162151  -1.75  -1.86
iter:   3 19:40:24 -5887.526902  -2.45  -1.84
iter:   4 19:42:06 -5888.090343  -3.43  -2.52
iter:   5 19:43:36 -5887.300606  -3.90  -2.31
iter:   6 19:45:11 -5887.280502  -3.64  -2.71
iter:   7 19:46:44 -5887.264214c -4.79  -2.88
iter:   8 19:48:19 -5887.261620c -4.73  -2.98
iter:   9 19:49:51 -5887.294865c -4.20  -3.09
iter:  10 19:51:24 -5887.250369c -4.70  -2.86
iter:  11 19:53:00 -5887.252984c -4.97  -3.16
iter:  12 19:54:37 -5887.254011c -5.07  -3.32
iter:  13 19:56:10 -5887.249219c -5.17  -3.28
iter:  14 19:57:47 -5887.247528c -5.78  -3.46
iter:  15 19:59:45 -5887.246730c -6.43  -3.77
iter:  16 20:01:31 -5887.246329c -6.47  -3.84
iter:  17 20:02:59 -5887.244055c -6.03  -3.91
iter:  18 20:04:30 -5887.247567c -6.28  -3.96
iter:  19 20:05:57 -5887.245474c -6.70  -3.93
iter:  20 20:07:37 -5887.245796c -7.36  -4.34c
iter:  21 20:09:13 -5887.246242c -7.43c -4.35c

Converged after 21 iterations.

Dipole moment: (-94.010803, 16.497313, 0.005409) |e|*Ang

Energy contributions relative to reference atoms: (reference = -3392203.925309)

Kinetic:       +628.327264
Potential:     -671.495403
External:        +0.000000
XC:            -5842.882299
Entropy (-ST):   -0.865970
Local:           -0.762820
--------------------------
Free energy:   -5887.679227
Extrapolated:  -5887.246242

Showing only first 2 kpts
 Kpt  Band  Eigenvalues  Occupancy
  0   436      1.08496    0.47221
  0   437      1.10627    0.39970
  0   438      1.23755    0.12594
  0   439      1.43682    0.01816

  1   436      0.72341    1.83986
  1   437      0.75931    1.77836
  1   438      1.00237    0.82765
  1   439      1.01796    0.75314


Fermi level: 0.96755

No gap

Forces in eV/Ang:
  0 Cu    0.06017    0.01098   -0.02894
  1 Cu   -0.04061    0.02294    0.10685
  2 Cu    0.02216   -0.00483    0.05412
  3 Cu    0.06134    0.00425   -0.13773
  4 Cu   -0.00143   -0.00446   -0.03494
  5 Cu    0.00221   -0.02239    0.04487
  6 Cu    0.00584   -0.01795    0.07117
  7 Cu    0.03881   -0.00222   -0.04045
  8 Cu    0.00096    0.00227   -0.01412
  9 Cu   -0.00073   -0.00265    0.01590
 10 Cu    0.00016    0.00064    0.01410
 11 Cu   -0.00020   -0.00219   -0.01487
 12 Cu   -0.00088   -0.00270   -0.01811
 13 Cu   -0.00632    0.00252   -0.00354
 14 Cu    0.00696   -0.00207   -0.00522
 15 Cu    0.00148   -0.00014   -0.01428
 16 Cu    0.00120   -0.02013   -0.04397
 17 Cu   -0.00531   -0.00580   -0.04403
 18 Cu    0.00041   -0.00892   -0.02247
 19 Cu    0.00725   -0.02280   -0.06957
 20 Cu   -0.06185    0.03815   -0.08326
 21 Cu    0.00302    0.01201   -0.21468
 22 Cu    0.03420    0.00097   -0.02097
 23 Cu    0.00465    0.00612   -0.03248
 24 Cu    0.02705   -0.01493   -0.08593
 25 Cu   -0.04356   -0.02096    0.08437
 26 Cu    0.02104    0.00486    0.04345
 27 Cu    0.11160   -0.01024   -0.27072
 28 Cu    0.00506    0.00439   -0.14542
 29 Cu    0.00054    0.02305    0.04720
 30 Cu    0.00743    0.01867    0.07511
 31 Cu    0.00209    0.00341    0.06511
 32 Cu    0.00615   -0.00233    0.01017
 33 Cu    0.00018    0.00160    0.01740
 34 Cu   -0.00138    0.00021    0.01730
 35 Cu   -0.00022    0.00237    0.03102
 36 Cu   -0.00124    0.00218   -0.00287
 37 Cu   -0.00038   -0.00145    0.00991
 38 Cu    0.00042    0.00250    0.01623
 39 Cu   -0.00006   -0.00033   -0.00994
 40 Cu   -0.00024    0.01989   -0.04287
 41 Cu    0.03810    0.00328    0.04211
 42 Cu   -0.03415    0.00272    0.04487
 43 Cu    0.00676    0.02363   -0.06196
 44 Cu   -0.06304   -0.04087   -0.10056
 45 Cu   -0.04642   -0.00586    0.11386
 46 Cu   -0.03043    0.00226    0.02337
 47 Cu    0.00363   -0.00750   -0.05047
 48 Cu    0.06555    0.01167    0.12012
 49 Cu    0.05204    0.00562   -0.04672
 50 Cu   -0.03032   -0.00653   -0.03982
 51 Cu   -0.00715   -0.01555    0.06230
 52 Cu    0.00112   -0.00205    0.00594
 53 Cu   -0.00052   -0.00117   -0.01526
 54 Cu    0.00016   -0.00169   -0.01273
 55 Cu    0.00011   -0.00141   -0.04081
 56 Cu    0.00278   -0.00879    0.19294
 57 Cu   -0.00771   -0.01932   -0.06935
 58 Cu    0.04918    0.02658   -0.09698
 59 Cu    0.06668   -0.00145    0.28643
 60 Cu    0.06939   -0.01693    0.10291
 61 Cu    0.01263   -0.00252    0.21198
 62 Cu    0.00183   -0.00090    0.03074
 63 Cu   -0.00697    0.01531    0.07159
 64 Cu    0.00145    0.00293    0.02092
 65 Cu   -0.00578    0.00292    0.00260
 66 Cu    0.00165    0.00271   -0.01237
 67 Cu    0.00020    0.00238    0.02401
 68 Cu   -0.00259    0.00370    0.02569
 69 Cu   -0.00550    0.01982   -0.06830
 70 Cu    0.05157   -0.03333   -0.12012
 71 Cu   -0.04846   -0.00377    0.05350
 72 Cl   -0.11284   -0.00536    0.20308
 73 Cl   -0.23232   -0.01368   -0.19062
 74 Cl   -0.02005   -0.02204    0.09448
 75 Cl   -0.13454    0.01587   -0.10964
 76 Cl   -0.07772    0.01418   -0.16424
 77 Cl    0.11730   -0.01397    0.12666
 78 Cl    0.08692   -0.01921   -0.06217
 79 Cl   -0.14272    0.00187   -0.01921
 80 Cl    0.15063    0.06779    0.03398
 81 Cl   -0.05038   -0.06890    0.05538
 82 Cl   -0.01304    0.08308   -0.09821
 83 Cl    0.04612   -0.01747    0.14881

System changes: positions 

Initializing position-dependent things.

Density initialized from wave functions
      .------------------.  
     /|                  |  
    / |                  |  
   /  |                  |  
  /   |                  |  
 *    |                  |  
 |    |                  |  
 |    |                  |  
 |    |                  |  
 |    |                  |  
 |    |                  |  
 |   Cl     Cl    Cl     |  
 |    |                  |  
 |    |  Cu    Cu    Cu  |  
 | Cl |CuCl     Cl Cu    |  
 |    |                  |  
 |  CuCu   CCu   CuCu    |  
 |    |  Cu    Cu    Cu  |  
 |    |                  |  
 |    CuCu  Cu     Cu    |  
 |  Cu|  CuCu  CuCu  Cu  |  
 |    |                  |  
 |Cu  CuCu  CuCu   Cu    |  
 |  Cu|  CuCu  CuCu  Cu  |  
 |    |                  |  
 |Cu  | Cu    Cu         |  
 |  CuCu CuCCu CuCuCuCu  |  
 |    |                  |  
 |Cu  | Cu    Cu         |  
 |  CuCu CuCCu CuCuCuCu  |  
 |    |Cu    Cu    Cu    |  
 |    |                  |  
 |CuCuCuCuCCCuCuCCuCu  Cl|  
 |    |                  |  
 |    |                  |  
 |    | Cl    Cl    Cl   |  
 |    |                  |  
 |    |                  |  
 |    |                  |  
 |    |                  |  
 |    |                  |  
 |    |                  |  
 |    .------------------.  
 |   /                  /   
 |  /                  /    
 | /                  /     
 |/                  /      
 *------------------*       

Positions:
   0 Cu     2.912257   -0.005650   10.027141    ( 0.0000,  0.0000,  0.0000)
   1 Cu     1.591887    1.847620   11.347203    ( 0.0000,  0.0000,  0.0000)
   2 Cu     4.207154    1.853697   11.337659    ( 0.0000,  0.0000,  0.0000)
   3 Cu     0.294008   -0.006066   10.034052    ( 0.0000,  0.0000,  0.0000)
   4 Cu     0.278135    0.002183   12.603167    ( 0.0000,  0.0000,  0.0000)
   5 Cu     4.202936    1.858046   13.938489    ( 0.0000,  0.0000,  0.0000)
   6 Cu     1.588594    1.851309   13.943537    ( 0.0000,  0.0000,  0.0000)
   7 Cu     2.898166    0.003349   12.599743    ( 0.0000,  0.0000,  0.0000)
   8 Cu     2.896125    0.000142   15.219285    ( 0.0000,  0.0000,  0.0000)
   9 Cu     1.586712    1.850593   16.555311    ( 0.0000,  0.0000,  0.0000)
  10 Cu     4.202896    1.852214   16.553096    ( 0.0000,  0.0000,  0.0000)
  11 Cu     0.277715    0.000877   15.220564    ( 0.0000,  0.0000,  0.0000)
  12 Cu     0.278031    0.000389   17.839519    ( 0.0000,  0.0000,  0.0000)
  13 Cu     4.204565    1.851344   19.179017    ( 0.0000,  0.0000,  0.0000)
  14 Cu     1.584936    1.851599   19.179127    ( 0.0000,  0.0000,  0.0000)
  15 Cu     2.894964    0.001849   17.840728    ( 0.0000,  0.0000,  0.0000)
  16 Cu     2.894632    0.008588   20.452533    ( 0.0000,  0.0000,  0.0000)
  17 Cu     1.583983    1.854571   21.815214    ( 0.0000,  0.0000,  0.0000)
  18 Cu     4.205281    1.853070   21.821058    ( 0.0000,  0.0000,  0.0000)
  19 Cu     0.279996    0.000567   20.447327    ( 0.0000,  0.0000,  0.0000)
  20 Cu     0.280703   -0.003624   23.032289    ( 0.0000,  0.0000,  0.0000)
  21 Cu     4.225511    1.844706   24.405587    ( 0.0000,  0.0000,  0.0000)
  22 Cu     1.583989    1.844780   24.397256    ( 0.0000,  0.0000,  0.0000)
  23 Cu     2.894200    0.005767   23.042875    ( 0.0000,  0.0000,  0.0000)
  24 Cu     2.903430    3.707941    9.995843    ( 0.0000,  0.0000,  0.0000)
  25 Cu     1.592398    5.551917   11.359906    ( 0.0000,  0.0000,  0.0000)
  26 Cu     4.207975    5.543912   11.349441    ( 0.0000,  0.0000,  0.0000)
  27 Cu     0.290806    3.703575   10.043651    ( 0.0000,  0.0000,  0.0000)
  28 Cu     0.278657    3.697555   12.614273    ( 0.0000,  0.0000,  0.0000)
  29 Cu     4.203249    5.544567   13.939553    ( 0.0000,  0.0000,  0.0000)
  30 Cu     1.588043    5.551371   13.944339    ( 0.0000,  0.0000,  0.0000)
  31 Cu     2.893621    3.698164   12.579107    ( 0.0000,  0.0000,  0.0000)
  32 Cu     2.893236    3.700857   15.213376    ( 0.0000,  0.0000,  0.0000)
  33 Cu     1.586847    5.551733   16.553498    ( 0.0000,  0.0000,  0.0000)
  34 Cu     4.202827    5.550046   16.551813    ( 0.0000,  0.0000,  0.0000)
  35 Cu     0.277915    3.700617   15.225103    ( 0.0000,  0.0000,  0.0000)
  36 Cu     0.278180    3.701263   17.838663    ( 0.0000,  0.0000,  0.0000)
  37 Cu     4.201680    5.551879   19.172855    ( 0.0000,  0.0000,  0.0000)
  38 Cu     1.587909    5.551356   19.173027    ( 0.0000,  0.0000,  0.0000)
  39 Cu     2.894815    3.699706   17.839163    ( 0.0000,  0.0000,  0.0000)
  40 Cu     2.895048    3.694007   20.453753    ( 0.0000,  0.0000,  0.0000)
  41 Cu     1.589364    5.548985   21.790885    ( 0.0000,  0.0000,  0.0000)
  42 Cu     4.200311    5.548599   21.788737    ( 0.0000,  0.0000,  0.0000)
  43 Cu     0.279927    3.702131   20.448603    ( 0.0000,  0.0000,  0.0000)
  44 Cu     0.279326    3.702707   23.043462    ( 0.0000,  0.0000,  0.0000)
  45 Cu     4.190212    5.556221   24.361935    ( 0.0000,  0.0000,  0.0000)
  46 Cu     1.575346    5.557109   24.363718    ( 0.0000,  0.0000,  0.0000)
  47 Cu     2.895578    3.692758   23.054186    ( 0.0000,  0.0000,  0.0000)
  48 Cu     6.819412    1.847233   11.348655    ( 0.0000,  0.0000,  0.0000)
  49 Cu     5.532530   -0.005555   10.032108    ( 0.0000,  0.0000,  0.0000)
  50 Cu     5.510058    0.001668   12.601868    ( 0.0000,  0.0000,  0.0000)
  51 Cu     6.817855    1.851389   13.943523    ( 0.0000,  0.0000,  0.0000)
  52 Cu     6.819609    1.850922   16.553976    ( 0.0000,  0.0000,  0.0000)
  53 Cu     5.510027    0.000898   15.219333    ( 0.0000,  0.0000,  0.0000)
  54 Cu     5.510875    0.000337   17.839123    ( 0.0000,  0.0000,  0.0000)
  55 Cu     6.819934    1.851637   19.166419    ( 0.0000,  0.0000,  0.0000)
  56 Cu     6.820568    1.853310   21.775706    ( 0.0000,  0.0000,  0.0000)
  57 Cu     5.509566    0.000988   20.448826    ( 0.0000,  0.0000,  0.0000)
  58 Cu     5.507699   -0.002644   23.033623    ( 0.0000,  0.0000,  0.0000)
  59 Cu     6.826055    1.844879   24.349113    ( 0.0000,  0.0000,  0.0000)
  60 Cu     6.818480    5.548896   11.360457    ( 0.0000,  0.0000,  0.0000)
  61 Cu     5.541833    3.707368    9.990119    ( 0.0000,  0.0000,  0.0000)
  62 Cu     5.513630    3.696075   12.572863    ( 0.0000,  0.0000,  0.0000)
  63 Cu     6.817883    5.550460   13.944156    ( 0.0000,  0.0000,  0.0000)
  64 Cu     6.819729    5.551638   16.552517    ( 0.0000,  0.0000,  0.0000)
  65 Cu     5.512732    3.700835   15.213204    ( 0.0000,  0.0000,  0.0000)
  66 Cu     5.511015    3.701303   17.837417    ( 0.0000,  0.0000,  0.0000)
  67 Cu     6.819780    5.551458   19.172076    ( 0.0000,  0.0000,  0.0000)
  68 Cu     6.819310    5.548438   21.792492    ( 0.0000,  0.0000,  0.0000)
  69 Cu     5.509100    3.701293   20.449477    ( 0.0000,  0.0000,  0.0000)
  70 Cu     5.507323    3.700046   23.045235    ( 0.0000,  0.0000,  0.0000)
  71 Cu     6.804925    5.558025   24.361445    ( 0.0000,  0.0000,  0.0000)
  72 Cl     2.941741    1.789091   26.365677    ( 0.0000,  0.0000,  0.0000)
  73 Cl     4.281698    3.650562    8.022838    ( 0.0000,  0.0000,  0.0000)
  74 Cl     5.452761    5.584207   26.336422    ( 0.0000,  0.0000,  0.0000)
  75 Cl     1.670589   -0.139915    8.056010    ( 0.0000,  0.0000,  0.0000)
  76 Cl     4.286235   -0.041633    8.059230    ( 0.0000,  0.0000,  0.0000)
  77 Cl     2.834049    5.484667   26.334165    ( 0.0000,  0.0000,  0.0000)
  78 Cl     6.905291    3.751837    8.027764    ( 0.0000,  0.0000,  0.0000)
  79 Cl     0.334261    1.789316   26.382420    ( 0.0000,  0.0000,  0.0000)
  80 Cl     5.562082    1.809165   26.370562    ( 0.0000,  0.0000,  0.0000)
  81 Cl     1.676304    3.623700    8.007348    ( 0.0000,  0.0000,  0.0000)
  82 Cl     6.902624   -0.018573    8.053458    ( 0.0000,  0.0000,  0.0000)
  83 Cl     0.217135    5.485898   26.330737    ( 0.0000,  0.0000,  0.0000)

Unit cell:
           periodic     x           y           z      points  spacing
  1. axis:    yes    7.851007    0.000000    0.000000    45     0.1745
  2. axis:    yes    0.000000    7.402000    0.000000    42     0.1762
  3. axis:    yes    0.000000    0.000000   34.393512   196     0.1755

  Lengths:   7.851007   7.402000  34.393512
  Angles:   90.000000  90.000000  90.000000

Effective grid spacing dv^(1/3) = 0.1754

     iter     time        total  log10-change:
                         energy  eigst   dens
iter:   1 20:11:56 -5889.426352  -2.45
iter:   2 20:13:25 -5890.241292  -2.30  -2.15
iter:   3 20:14:52 -5888.220159  -2.91  -2.10
iter:   4 20:16:41 -5887.400371  -3.99  -2.31
iter:   5 20:18:07 -5887.352631  -4.60  -2.88
iter:   6 20:19:38 -5887.322239c -4.07  -3.01
iter:   7 20:21:22 -5887.347935c -4.86  -3.04
iter:   8 20:22:49 -5887.378865c -4.35  -2.97
iter:   9 20:24:19 -5887.326428c -4.96  -2.95
iter:  10 20:25:53 -5887.325403c -5.90  -3.24
iter:  11 20:27:27 -5887.314281c -5.34  -3.27
iter:  12 20:28:57 -5887.317794c -5.87  -3.53
iter:  13 20:30:30 -5887.314049c -6.40  -3.72
iter:  14 20:32:08 -5887.315661c -6.31  -3.80
iter:  15 20:34:01 -5887.314942c -6.58  -4.03c
iter:  16 20:35:50 -5887.316760c -6.31  -3.81
iter:  17 20:37:16 -5887.316328c -6.61  -3.93
iter:  18 20:38:41 -5887.315588c -7.20  -4.03c
iter:  19 20:40:05 -5887.315107c -6.91  -4.36c
iter:  20 20:41:31 -5887.315257c -7.67c -4.32c

Converged after 20 iterations.

Dipole moment: (-94.335228, 15.381036, 0.005346) |e|*Ang

Energy contributions relative to reference atoms: (reference = -3392203.925309)

Kinetic:       +625.500709
Potential:     -669.205024
External:        +0.000000
XC:            -5842.384982
Entropy (-ST):   -0.866532
Local:           -0.792694
--------------------------
Free energy:   -5887.748523
Extrapolated:  -5887.315257

Showing only first 2 kpts
 Kpt  Band  Eigenvalues  Occupancy
  0   436      1.07790    0.48579
  0   437      1.10538    0.39194
  0   438      1.23656    0.12320
  0   439      1.42383    0.01998

  1   436      0.71692    1.84444
  1   437      0.75754    1.77525
  1   438      0.99841    0.83067
  1   439      1.01381    0.75696


Fermi level: 0.96421

No gap

Forces in eV/Ang:
  0 Cu    0.03334    0.00576   -0.03830
  1 Cu   -0.00072    0.01430    0.01694
  2 Cu    0.00992   -0.00546    0.01487
  3 Cu    0.04644    0.00387   -0.07782
  4 Cu    0.00313   -0.00449   -0.00410
  5 Cu    0.00246   -0.01562    0.02138
  6 Cu   -0.00678   -0.00509    0.03441
  7 Cu    0.00912   -0.00323   -0.00584
  8 Cu    0.00286    0.00153    0.00419
  9 Cu    0.00085   -0.00350    0.00812
 10 Cu    0.00055   -0.00149    0.00362
 11 Cu   -0.00051   -0.00083    0.00635
 12 Cu    0.00133   -0.00489   -0.01359
 13 Cu   -0.00461    0.00145   -0.01233
 14 Cu    0.00460   -0.00109   -0.01616
 15 Cu    0.00089   -0.00176   -0.00884
 16 Cu    0.00174   -0.01373   -0.02050
 17 Cu    0.00305   -0.00550   -0.05496
 18 Cu   -0.00751   -0.00651   -0.07898
 19 Cu   -0.00652   -0.00247   -0.03268
 20 Cu   -0.02429    0.01785   -0.00100
 21 Cu   -0.03093    0.00554   -0.02243
 22 Cu    0.04575    0.00023    0.01138
 23 Cu   -0.00404   -0.01293   -0.00298
 24 Cu    0.05082   -0.01112   -0.01843
 25 Cu   -0.00044   -0.01410   -0.00161
 26 Cu    0.00680    0.00627    0.00393
 27 Cu    0.06345   -0.00841   -0.18662
 28 Cu    0.00474    0.00222   -0.05528
 29 Cu    0.00094    0.01503    0.02261
 30 Cu   -0.00450    0.00544    0.03522
 31 Cu    0.00953    0.00364    0.04186
 32 Cu    0.00591   -0.00130    0.02192
 33 Cu    0.00189    0.00313    0.01258
 34 Cu   -0.00054    0.00222    0.00728
 35 Cu   -0.00074    0.00093    0.00010
 36 Cu    0.00123    0.00473    0.00007
 37 Cu   -0.00319   -0.00079   -0.00689
 38 Cu    0.00332    0.00142   -0.00422
 39 Cu   -0.00029    0.00163   -0.00433
 40 Cu    0.00054    0.01261   -0.02120
 41 Cu    0.00721    0.00326    0.01194
 42 Cu   -0.00590    0.00234    0.02472
 43 Cu   -0.00687    0.00166   -0.02935
 44 Cu   -0.02307   -0.01942   -0.01245
 45 Cu   -0.02273   -0.00606    0.05270
 46 Cu   -0.03416   -0.00223    0.03337
 47 Cu   -0.00677    0.01288   -0.01601
 48 Cu    0.05012    0.00009    0.01814
 49 Cu    0.03183    0.00340   -0.05646
 50 Cu   -0.00298   -0.00555   -0.00676
 51 Cu    0.00556   -0.00159    0.03060
 52 Cu   -0.00093   -0.00330   -0.00353
 53 Cu   -0.00214   -0.00059    0.00340
 54 Cu   -0.00152   -0.00390   -0.01293
 55 Cu    0.00082   -0.00073    0.00433
 56 Cu   -0.00082   -0.00705    0.07050
 57 Cu    0.00549    0.00031   -0.03486
 58 Cu    0.02163    0.00324   -0.00569
 59 Cu    0.04069    0.00014    0.19376
 60 Cu    0.05239   -0.00208    0.00461
 61 Cu   -0.02206   -0.00657    0.00554
 62 Cu   -0.00254    0.00130    0.07685
 63 Cu    0.00495    0.00098    0.03446
 64 Cu   -0.00104    0.00408    0.01333
 65 Cu   -0.00500    0.00145    0.01195
 66 Cu   -0.00052    0.00464   -0.00953
 67 Cu    0.00026    0.00156   -0.00552
 68 Cu    0.00117    0.00291   -0.01131
 69 Cu    0.00735   -0.00164   -0.03418
 70 Cu    0.02389   -0.00655   -0.02283
 71 Cu   -0.01826   -0.00534    0.04979
 72 Cl   -0.00427   -0.00318    0.03697
 73 Cl   -0.01434   -0.00283   -0.02808
 74 Cl    0.02336   -0.01544    0.07528
 75 Cl   -0.09051    0.01203   -0.05914
 76 Cl   -0.05458    0.01155   -0.08370
 77 Cl    0.05396   -0.01168    0.08531
 78 Cl    0.04200   -0.01507    0.01969
 79 Cl   -0.15025   -0.00028   -0.02674
 80 Cl    0.08424    0.06346   -0.02289
 81 Cl   -0.17220   -0.06195    0.02155
 82 Cl   -0.02421    0.07767   -0.06407
 83 Cl    0.02695   -0.01279    0.08009

System changes: positions 

Initializing position-dependent things.

Density initialized from wave functions
      .------------------.  
     /|                  |  
    / |                  |  
   /  |                  |  
  /   |                  |  
 *    |                  |  
 |    |                  |  
 |    |                  |  
 |    |                  |  
 |    |                  |  
 |    |                  |  
 |   Cl     Cl    Cl     |  
 |    |                  |  
 |    |  Cu    Cu    Cu  |  
 | Cl |CuCl     Cl Cu    |  
 |    |                  |  
 |  CuCu   CCu   CuCu    |  
 |    |CuCu    Cu    Cu  |  
 |    |                  |  
 |    CuCu  Cu     Cu    |  
 |  Cu|CuCuCu  CuCuCuCu  |  
 |    |                  |  
 |    CuCu  CuCu   Cu    |  
 |  Cu|  CuCu  CuCu  Cu  |  
 |    |                  |  
 |    | Cu               |  
 |  CuCu CuCCu CuCuCuCu  |  
 |    |                  |  
 |Cu  | Cu    Cu         |  
 |  CuCu CuCCu CuCuCuCu  |  
 |    |Cu    Cu    Cu    |  
 |    |                  |  
 |CuCuCuCuCCCuCuCCuCu  Cl|  
 |    |                  |  
 |    |                  |  
 |    |Cl     Cl    Cl   |  
 |    |                  |  
 |    |                  |  
 |    |                  |  
 |    |                  |  
 |    |                  |  
 |    |                  |  
 |    .------------------.  
 |   /                  /   
 |  /                  /    
 | /                  /     
 |/                  /      
 *------------------*       

Positions:
   0 Cu     2.920612   -0.004197   10.016553    ( 0.0000,  0.0000,  0.0000)
   1 Cu     1.590690    1.849993   11.358424    ( 0.0000,  0.0000,  0.0000)
   2 Cu     4.209690    1.853552   11.344309    ( 0.0000,  0.0000,  0.0000)
   3 Cu     0.304388   -0.005065   10.015064    ( 0.0000,  0.0000,  0.0000)
   4 Cu     0.278632    0.001233   12.599893    ( 0.0000,  0.0000,  0.0000)
   5 Cu     4.203416    1.854611   13.944133    ( 0.0000,  0.0000,  0.0000)
   6 Cu     1.587780    1.849910   13.952515    ( 0.0000,  0.0000,  0.0000)
   7 Cu     2.901233    0.002749   12.595775    ( 0.0000,  0.0000,  0.0000)
   8 Cu     2.896662    0.000476   15.218923    ( 0.0000,  0.0000,  0.0000)
   9 Cu     1.586726    1.849898   16.557695    ( 0.0000,  0.0000,  0.0000)
  10 Cu     4.203084    1.851964   16.554551    ( 0.0000,  0.0000,  0.0000)
  11 Cu     0.277620    0.000627   15.220145    ( 0.0000,  0.0000,  0.0000)
  12 Cu     0.278216   -0.000515   17.836055    ( 0.0000,  0.0000,  0.0000)
  13 Cu     4.203639    1.851682   19.177423    ( 0.0000,  0.0000,  0.0000)
  14 Cu     1.585896    1.851304   19.176887    ( 0.0000,  0.0000,  0.0000)
  15 Cu     2.895172    0.001524   17.838296    ( 0.0000,  0.0000,  0.0000)
  16 Cu     2.894973    0.005549   20.446961    ( 0.0000,  0.0000,  0.0000)
  17 Cu     1.584332    1.853447   21.804837    ( 0.0000,  0.0000,  0.0000)
  18 Cu     4.204033    1.851615   21.807570    ( 0.0000,  0.0000,  0.0000)
  19 Cu     0.279300   -0.000603   20.438690    ( 0.0000,  0.0000,  0.0000)
  20 Cu     0.274945   -0.000359   23.024744    ( 0.0000,  0.0000,  0.0000)
  21 Cu     4.219524    1.846126   24.393971    ( 0.0000,  0.0000,  0.0000)
  22 Cu     1.594727    1.844911   24.396026    ( 0.0000,  0.0000,  0.0000)
  23 Cu     2.893568    0.004804   23.039084    ( 0.0000,  0.0000,  0.0000)
  24 Cu     2.915392    3.705553    9.993378    ( 0.0000,  0.0000,  0.0000)
  25 Cu     1.591150    5.549630   11.367199    ( 0.0000,  0.0000,  0.0000)
  26 Cu     4.210015    5.544018   11.353844    ( 0.0000,  0.0000,  0.0000)
  27 Cu     0.305235    3.701634   10.005505    ( 0.0000,  0.0000,  0.0000)
  28 Cu     0.279639    3.698153   12.599934    ( 0.0000,  0.0000,  0.0000)
  29 Cu     4.203402    5.547946   13.945562    ( 0.0000,  0.0000,  0.0000)
  30 Cu     1.587686    5.552883   13.953594    ( 0.0000,  0.0000,  0.0000)
  31 Cu     2.895346    3.698966   12.588078    ( 0.0000,  0.0000,  0.0000)
  32 Cu     2.894374    3.700551   15.216726    ( 0.0000,  0.0000,  0.0000)
  33 Cu     1.587171    5.552296   16.556678    ( 0.0000,  0.0000,  0.0000)
  34 Cu     4.202686    5.550450   16.554095    ( 0.0000,  0.0000,  0.0000)
  35 Cu     0.277805    3.700884   15.225677    ( 0.0000,  0.0000,  0.0000)
  36 Cu     0.278339    3.702121   17.838184    ( 0.0000,  0.0000,  0.0000)
  37 Cu     4.201112    5.551685   19.172660    ( 0.0000,  0.0000,  0.0000)
  38 Cu     1.588504    5.551710   19.173491    ( 0.0000,  0.0000,  0.0000)
  39 Cu     2.894676    3.699993   17.837722    ( 0.0000,  0.0000,  0.0000)
  40 Cu     2.895132    3.696868   20.448182    ( 0.0000,  0.0000,  0.0000)
  41 Cu     1.592065    5.549687   21.795919    ( 0.0000,  0.0000,  0.0000)
  42 Cu     4.197938    5.549091   21.795737    ( 0.0000,  0.0000,  0.0000)
  43 Cu     0.279142    3.703213   20.440872    ( 0.0000,  0.0000,  0.0000)
  44 Cu     0.273621    3.698984   23.033270    ( 0.0000,  0.0000,  0.0000)
  45 Cu     4.184254    5.555002   24.376368    ( 0.0000,  0.0000,  0.0000)
  46 Cu     1.568338    5.556868   24.373548    ( 0.0000,  0.0000,  0.0000)
  47 Cu     2.894560    3.693590   23.047269    ( 0.0000,  0.0000,  0.0000)
  48 Cu     6.829625    1.846954   11.360246    ( 0.0000,  0.0000,  0.0000)
  49 Cu     5.540326   -0.004712   10.018159    ( 0.0000,  0.0000,  0.0000)
  50 Cu     5.508370    0.000442   12.597788    ( 0.0000,  0.0000,  0.0000)
  51 Cu     6.818416    1.850633   13.951456    ( 0.0000,  0.0000,  0.0000)
  52 Cu     6.819511    1.850313   16.553992    ( 0.0000,  0.0000,  0.0000)
  53 Cu     5.509634    0.000737   15.218789    ( 0.0000,  0.0000,  0.0000)
  54 Cu     5.510633   -0.000352   17.836054    ( 0.0000,  0.0000,  0.0000)
  55 Cu     6.820065    1.851439   19.166263    ( 0.0000,  0.0000,  0.0000)
  56 Cu     6.820539    1.851768   21.793761    ( 0.0000,  0.0000,  0.0000)
  57 Cu     5.510071    0.000421   20.439839    ( 0.0000,  0.0000,  0.0000)
  58 Cu     5.512688   -0.002072   23.024917    ( 0.0000,  0.0000,  0.0000)
  59 Cu     6.835073    1.845070   24.388026    ( 0.0000,  0.0000,  0.0000)
  60 Cu     6.829179    5.548489   11.369203    ( 0.0000,  0.0000,  0.0000)
  61 Cu     5.538154    3.706158    9.998385    ( 0.0000,  0.0000,  0.0000)
  62 Cu     5.513275    3.696259   12.586216    ( 0.0000,  0.0000,  0.0000)
  63 Cu     6.818342    5.551124   13.953093    ( 0.0000,  0.0000,  0.0000)
  64 Cu     6.819609    5.552407   16.556015    ( 0.0000,  0.0000,  0.0000)
  65 Cu     5.511742    3.701232   15.214674    ( 0.0000,  0.0000,  0.0000)
  66 Cu     5.511078    3.702178   17.834921    ( 0.0000,  0.0000,  0.0000)
  67 Cu     6.819826    5.551832   19.172898    ( 0.0000,  0.0000,  0.0000)
  68 Cu     6.819398    5.549129   21.793130    ( 0.0000,  0.0000,  0.0000)
  69 Cu     5.510014    3.701682   20.440645    ( 0.0000,  0.0000,  0.0000)
  70 Cu     5.512762    3.698516   23.032657    ( 0.0000,  0.0000,  0.0000)
  71 Cu     6.799707    5.556938   24.374418    ( 0.0000,  0.0000,  0.0000)
  72 Cl     2.941353    1.788368   26.381418    ( 0.0000,  0.0000,  0.0000)
  73 Cl     4.277869    3.649527    8.008691    ( 0.0000,  0.0000,  0.0000)
  74 Cl     5.461032    5.580771   26.353935    ( 0.0000,  0.0000,  0.0000)
  75 Cl     1.657593   -0.137149    8.040895    ( 0.0000,  0.0000,  0.0000)
  76 Cl     4.273775   -0.039062    8.039268    ( 0.0000,  0.0000,  0.0000)
  77 Cl     2.841492    5.482002   26.353740    ( 0.0000,  0.0000,  0.0000)
  78 Cl     6.891380    3.748897    8.023230    ( 0.0000,  0.0000,  0.0000)
  79 Cl     0.326028    1.789235   26.384608    ( 0.0000,  0.0000,  0.0000)
  80 Cl     5.554666    1.822522   26.374666    ( 0.0000,  0.0000,  0.0000)
  81 Cl     1.660898    3.609654    8.005697    ( 0.0000,  0.0000,  0.0000)
  82 Cl     6.890007   -0.001829    8.037430    ( 0.0000,  0.0000,  0.0000)
  83 Cl     0.224936    5.483066   26.349788    ( 0.0000,  0.0000,  0.0000)

Unit cell:
           periodic     x           y           z      points  spacing
  1. axis:    yes    7.851007    0.000000    0.000000    45     0.1745
  2. axis:    yes    0.000000    7.402000    0.000000    42     0.1762
  3. axis:    yes    0.000000    0.000000   34.393512   196     0.1755

  Lengths:   7.851007   7.402000  34.393512
  Angles:   90.000000  90.000000  90.000000

Effective grid spacing dv^(1/3) = 0.1754

     iter     time        total  log10-change:
                         energy  eigst   dens
iter:   1 20:43:59 -5889.960953  -2.39
iter:   2 20:45:37 -5889.889358  -2.23  -2.11
iter:   3 20:47:11 -5887.391274  -3.21  -2.07
iter:   4 20:48:45 -5887.488619  -4.01  -3.00
iter:   5 20:50:16 -5887.384269c -4.64  -2.73
iter:   6 20:51:46 -5887.348425c -4.56  -2.98
iter:   7 20:53:11 -5887.344487c -4.81  -3.33
iter:   8 20:54:45 -5887.356134c -5.15  -3.33
iter:   9 20:56:23 -5887.348263c -5.55  -3.52
iter:  10 20:58:02 -5887.353308c -5.70  -3.62
iter:  11 20:59:30 -5887.348531c -6.18  -3.44
iter:  12 21:01:04 -5887.348997c -6.32  -3.76
iter:  13 21:02:30 -5887.349289c -6.47  -4.10c
iter:  14 21:04:05 -5887.348678c -7.23  -4.22c
iter:  15 21:05:40 -5887.348784c -6.99  -4.17c
iter:  16 21:07:10 -5887.349054c -7.06  -4.17c
iter:  17 21:08:49 -5887.348443c -7.11  -4.26c
iter:  18 21:10:18 -5887.348676c -8.29c -4.61c

Converged after 18 iterations.

Dipole moment: (-94.758074, 13.692804, 0.001728) |e|*Ang

Energy contributions relative to reference atoms: (reference = -3392203.925309)

Kinetic:       +623.884126
Potential:     -667.993572
External:        +0.000000
XC:            -5842.010227
Entropy (-ST):   -0.864298
Local:           -0.796854
--------------------------
Free energy:   -5887.780825
Extrapolated:  -5887.348676

Showing only first 2 kpts
 Kpt  Band  Eigenvalues  Occupancy
  0   436      1.07661    0.49565
  0   437      1.10918    0.38434
  0   438      1.24115    0.11953
  0   439      1.41941    0.02116

  1   436      0.71561    1.84826
  1   437      0.76252    1.76796
  1   438      0.99973    0.83090
  1   439      1.01711    0.74792


Fermi level: 0.96559

No gap

Forces in eV/Ang:
  0 Cu    0.00997    0.00120   -0.02835
  1 Cu    0.03324    0.00374   -0.04329
  2 Cu    0.01800   -0.00803   -0.00907
  3 Cu    0.01660    0.00288   -0.02058
  4 Cu    0.01221   -0.00433    0.00971
  5 Cu   -0.00215   -0.00859    0.00425
  6 Cu   -0.00705    0.00553   -0.00659
  7 Cu   -0.01563   -0.00323    0.00708
  8 Cu   -0.00112   -0.00021    0.01614
  9 Cu   -0.00079    0.00097    0.00067
 10 Cu    0.00076   -0.00192    0.00027
 11 Cu   -0.00052   -0.00137    0.01819
 12 Cu   -0.00083    0.00158    0.00062
 13 Cu   -0.00108   -0.00069   -0.03045
 14 Cu    0.00100   -0.00135   -0.02303
 15 Cu    0.00163   -0.00075    0.00053
 16 Cu   -0.00035   -0.01269   -0.00339
 17 Cu    0.00236   -0.00378   -0.02308
 18 Cu   -0.00432   -0.00280   -0.04170
 19 Cu   -0.00773    0.00725    0.00827
 20 Cu    0.01259    0.00140    0.05414
 21 Cu   -0.00246    0.00286    0.02502
 22 Cu    0.01517    0.00022    0.02575
 23 Cu   -0.00432   -0.01195    0.01697
 24 Cu    0.02192   -0.00888   -0.01787
 25 Cu    0.03359   -0.00535   -0.05493
 26 Cu    0.01641    0.00731   -0.01913
 27 Cu    0.01955   -0.00500   -0.03164
 28 Cu    0.00637    0.00182    0.00249
 29 Cu   -0.00261    0.00724    0.00402
 30 Cu   -0.00617   -0.00594   -0.00873
 31 Cu    0.00674    0.00320    0.01634
 32 Cu    0.00134    0.00014    0.02174
 33 Cu    0.00068   -0.00069    0.00173
 34 Cu   -0.00056    0.00237   -0.00143
 35 Cu    0.00097    0.00145   -0.00800
 36 Cu   -0.00117   -0.00117   -0.00330
 37 Cu    0.00204    0.00017   -0.00983
 38 Cu   -0.00067    0.00071   -0.01149
 39 Cu    0.00090    0.00106    0.00222
 40 Cu   -0.00101    0.01137   -0.00385
 41 Cu   -0.02307    0.00269   -0.00578
 42 Cu    0.02000    0.00127   -0.00276
 43 Cu   -0.00754   -0.00879    0.00849
 44 Cu    0.01517   -0.00300    0.04762
 45 Cu   -0.00024   -0.00585    0.03043
 46 Cu   -0.01451   -0.00571    0.03479
 47 Cu   -0.00679    0.01074    0.00937
 48 Cu    0.00689    0.00788   -0.05167
 49 Cu    0.01241    0.00181   -0.03105
 50 Cu    0.02222   -0.00424   -0.00048
 51 Cu    0.01088    0.00115   -0.00424
 52 Cu    0.00029    0.00148    0.00414
 53 Cu    0.00198   -0.00116    0.01362
 54 Cu   -0.00020    0.00243   -0.00242
 55 Cu    0.00095   -0.00132    0.01321
 56 Cu   -0.00529   -0.00427   -0.00896
 57 Cu    0.00843    0.00297    0.00387
 58 Cu   -0.01336    0.00474    0.05709
 59 Cu    0.00790    0.00245    0.03842
 60 Cu    0.00715   -0.01028   -0.06182
 61 Cu    0.00928   -0.00572   -0.01632
 62 Cu    0.00836    0.00436    0.03144
 63 Cu    0.01056   -0.00251   -0.00438
 64 Cu    0.00018   -0.00109   -0.00051
 65 Cu   -0.00205    0.00099    0.02742
 66 Cu    0.00076   -0.00192   -0.00147
 67 Cu   -0.00081    0.00089   -0.02251
 68 Cu    0.00577    0.00177   -0.01561
 69 Cu    0.00913   -0.00486    0.00335
 70 Cu   -0.01282   -0.00631    0.04866
 71 Cu    0.00035   -0.00602    0.02532
 72 Cl   -0.03181   -0.00557   -0.01945
 73 Cl   -0.05551    0.00272    0.01954
 74 Cl    0.00400   -0.00565    0.03171
 75 Cl   -0.04998   -0.00033   -0.02289
 76 Cl   -0.03763    0.00641   -0.03045
 77 Cl    0.03534   -0.00815    0.02688
 78 Cl    0.00365    0.00293    0.00051
 79 Cl   -0.05036   -0.00454   -0.02690
 80 Cl    0.02534    0.05573   -0.01014
 81 Cl   -0.06180   -0.05420    0.03368
 82 Cl   -0.02201    0.06786   -0.03176
 83 Cl    0.02409   -0.00906    0.03171

System changes: positions 

Initializing position-dependent things.

Density initialized from wave functions
      .------------------.  
     /|                  |  
    / |                  |  
   /  |                  |  
  /   |                  |  
 *    |                  |  
 |    |                  |  
 |    |                  |  
 |    |                  |  
 |    |                  |  
 |    |                  |  
 |   Cl     Cl    Cl     |  
 |    |                  |  
 |    |  Cu    Cu    Cu  |  
 | Cl |  Cl     Cl Cu    |  
 |    |                  |  
 |  CuCu  CuCu   CuCu    |  
 |    |CuCu    Cu    Cu  |  
 |    |                  |  
 |Cu  CuCu  Cu     Cu    |  
 |  Cu|CuCuCu  CuCuCuCu  |  
 |    |                  |  
 |    CuCu  CuCu   Cu    |  
 |  Cu|  CuCu  CuCu  Cu  |  
 |    |                  |  
 |    | Cu               |  
 |  CuCu CuCCu CuCuCuCu  |  
 |    |            Cu    |  
 |Cu  | Cu    Cu         |  
 |  CuCu CuCCu CuCuCuCu  |  
 |    |Cu    Cu    Cu    |  
 |    |                  |  
 |CuCuCuCuCCCu  CCuCu    |  
 |    |                  |  
 |    |                  |  
 |    |Cl     Cl    Cl   |  
 |    |                  |  
 |    |           Cl     |  
 |    |                  |  
 |    |                  |  
 |    |                  |  
 |    |                  |  
 |    .------------------.  
 |   /                  /   
 |  /                  /    
 | /                  /     
 |/                  /      
 *------------------*       

Positions:
   0 Cu     2.924135   -0.003652   10.010367    ( 0.0000,  0.0000,  0.0000)
   1 Cu     1.594230    1.851104   11.356640    ( 0.0000,  0.0000,  0.0000)
   2 Cu     4.212643    1.852597   11.345189    ( 0.0000,  0.0000,  0.0000)
   3 Cu     0.309137   -0.004437   10.007717    ( 0.0000,  0.0000,  0.0000)
   4 Cu     0.280244    0.000461   12.599964    ( 0.0000,  0.0000,  0.0000)
   5 Cu     4.203262    1.852658   13.946225    ( 0.0000,  0.0000,  0.0000)
   6 Cu     1.586806    1.850168   13.954174    ( 0.0000,  0.0000,  0.0000)
   7 Cu     2.900248    0.002209   12.595365    ( 0.0000,  0.0000,  0.0000)
   8 Cu     2.896638    0.000535   15.220684    ( 0.0000,  0.0000,  0.0000)
   9 Cu     1.586611    1.849858   16.558438    ( 0.0000,  0.0000,  0.0000)
  10 Cu     4.203227    1.851678   16.555034    ( 0.0000,  0.0000,  0.0000)
  11 Cu     0.277533    0.000383   15.222105    ( 0.0000,  0.0000,  0.0000)
  12 Cu     0.278141   -0.000517   17.835231    ( 0.0000,  0.0000,  0.0000)
  13 Cu     4.203273    1.851684   19.173330    ( 0.0000,  0.0000,  0.0000)
  14 Cu     1.586267    1.851055   19.173587    ( 0.0000,  0.0000,  0.0000)
  15 Cu     2.895430    0.001362   17.837709    ( 0.0000,  0.0000,  0.0000)
  16 Cu     2.895008    0.003182   20.444988    ( 0.0000,  0.0000,  0.0000)
  17 Cu     1.584649    1.852702   21.799606    ( 0.0000,  0.0000,  0.0000)
  18 Cu     4.203253    1.850893   21.799606    ( 0.0000,  0.0000,  0.0000)
  19 Cu     0.278281   -0.000135   20.437326    ( 0.0000,  0.0000,  0.0000)
  20 Cu     0.274835    0.000773   23.028839    ( 0.0000,  0.0000,  0.0000)
  21 Cu     4.217776    1.846885   24.392499    ( 0.0000,  0.0000,  0.0000)
  22 Cu     1.599400    1.844985   24.398276    ( 0.0000,  0.0000,  0.0000)
  23 Cu     2.892938    0.003298   23.039966    ( 0.0000,  0.0000,  0.0000)
  24 Cu     2.921092    3.703844    9.990446    ( 0.0000,  0.0000,  0.0000)
  25 Cu     1.594701    5.548346   11.362989    ( 0.0000,  0.0000,  0.0000)
  26 Cu     4.212667    5.544854   11.352926    ( 0.0000,  0.0000,  0.0000)
  27 Cu     0.311638    3.700510    9.993017    ( 0.0000,  0.0000,  0.0000)
  28 Cu     0.280676    3.698548   12.595906    ( 0.0000,  0.0000,  0.0000)
  29 Cu     4.203109    5.549727   13.947726    ( 0.0000,  0.0000,  0.0000)
  30 Cu     1.586930    5.552605   13.955075    ( 0.0000,  0.0000,  0.0000)
  31 Cu     2.896549    3.699563   12.592393    ( 0.0000,  0.0000,  0.0000)
  32 Cu     2.894813    3.700488   15.220124    ( 0.0000,  0.0000,  0.0000)
  33 Cu     1.587323    5.552333   16.557725    ( 0.0000,  0.0000,  0.0000)
  34 Cu     4.202575    5.550830   16.554569    ( 0.0000,  0.0000,  0.0000)
  35 Cu     0.277905    3.701142   15.225027    ( 0.0000,  0.0000,  0.0000)
  36 Cu     0.278213    3.702162   17.837608    ( 0.0000,  0.0000,  0.0000)
  37 Cu     4.201250    5.551655   19.171541    ( 0.0000,  0.0000,  0.0000)
  38 Cu     1.588543    5.551893   19.172354    ( 0.0000,  0.0000,  0.0000)
  39 Cu     2.894750    3.700183   17.837589    ( 0.0000,  0.0000,  0.0000)
[...]
    / |                  |  
   /  |                  |  
  /   |                  |  
 *    |                  |  
 |    |                  |  
 |    |                  |  
 |    |                  |  
 |    |                  |  
 |    |                  |  
 |   Cl     Cl     Cl    |  
 |    |                  |  
 |    |  Cu              |  
 |Cl  |Cu Cl CuCuClCu Cu |  
 |    |                  |  
 |  CuCu  CuCu     Cu    |  
 |    |CuCu  CuCuCuCuCu  |  
 |    |                  |  
 |    Cu    Cu     Cu    |  
 |  Cu|CuCCu CuCuCuCuCu  |  
 |    |                  |  
 |    Cu    Cu     Cu    |  
 |  Cu|CuCuCuCuCuCuCuCu  |  
 |    |                  |  
 |    |                  |  
 |  CuCu CuCCu CuCuCuCu  |  
 |    |Cu    Cu    Cu    |  
 |    |                  |  
 |  CuCu CuCCu CuCuCuCu  |  
 |    |Cu    Cu          |  
 |    |                  |  
 |  CuCu ClCCu  CCuCuCl  |  
 |    |                  |  
 |    |                  |  
 |    |Cl     Cu  Cl     |  
 |    |                  |  
 |    |                  |  
 |    |                  |  
 |    |                  |  
 |    |                  |  
 |    |                  |  
 |    .------------------.  
 |   /                  /   
 |  /                  /    
 | /                  /     
 |/                  /      
 *------------------*       

Positions:
   0 Cu     2.969776   -0.007900    9.903801    ( 0.0000,  0.0000,  0.0000)
   1 Cu     1.603416    1.841739   11.323153    ( 0.0000,  0.0000,  0.0000)
   2 Cu     4.209038    1.841929   11.319806    ( 0.0000,  0.0000,  0.0000)
   3 Cu     0.270544   -0.001860    9.985763    ( 0.0000,  0.0000,  0.0000)
   4 Cu     0.284338   -0.012161   12.589157    ( 0.0000,  0.0000,  0.0000)
   5 Cu     4.209116    1.830983   13.915134    ( 0.0000,  0.0000,  0.0000)
   6 Cu     1.596095    1.832876   13.910510    ( 0.0000,  0.0000,  0.0000)
   7 Cu     2.905130   -0.013329   12.568361    ( 0.0000,  0.0000,  0.0000)
   8 Cu     2.904012   -0.025756   15.209397    ( 0.0000,  0.0000,  0.0000)
   9 Cu     1.598694    1.817561   16.540734    ( 0.0000,  0.0000,  0.0000)
  10 Cu     4.214018    1.817015   16.524616    ( 0.0000,  0.0000,  0.0000)
  11 Cu     0.286352   -0.024310   15.217649    ( 0.0000,  0.0000,  0.0000)
  12 Cu     0.295252   -0.042026   17.845071    ( 0.0000,  0.0000,  0.0000)
  13 Cu     4.211605    1.798430   19.140435    ( 0.0000,  0.0000,  0.0000)
  14 Cu     1.602601    1.796567   19.187276    ( 0.0000,  0.0000,  0.0000)
  15 Cu     2.906317   -0.042479   17.837345    ( 0.0000,  0.0000,  0.0000)
  16 Cu     2.901839   -0.063952   20.463970    ( 0.0000,  0.0000,  0.0000)
  17 Cu     1.603425    1.775629   21.867776    ( 0.0000,  0.0000,  0.0000)
  18 Cu     4.204421    1.779090   21.757161    ( 0.0000,  0.0000,  0.0000)
  19 Cu     0.301896   -0.063189   20.470971    ( 0.0000,  0.0000,  0.0000)
  20 Cu     0.336705   -0.081226   23.084196    ( 0.0000,  0.0000,  0.0000)
  21 Cu     4.103442    1.762586   24.350381    ( 0.0000,  0.0000,  0.0000)
  22 Cu     1.605566    1.735165   24.724459    ( 0.0000,  0.0000,  0.0000)
  23 Cu     2.870142   -0.082723   23.079300    ( 0.0000,  0.0000,  0.0000)
  24 Cu     2.994356    3.686284    9.903809    ( 0.0000,  0.0000,  0.0000)
  25 Cu     1.603107    5.544048   11.318009    ( 0.0000,  0.0000,  0.0000)
  26 Cu     4.209035    5.544834   11.315926    ( 0.0000,  0.0000,  0.0000)
  27 Cu     0.282952    3.696111    9.987060    ( 0.0000,  0.0000,  0.0000)
  28 Cu     0.282716    3.690992   12.590903    ( 0.0000,  0.0000,  0.0000)
  29 Cu     4.209480    5.532999   13.915059    ( 0.0000,  0.0000,  0.0000)
  30 Cu     1.594694    5.534680   13.908509    ( 0.0000,  0.0000,  0.0000)
  31 Cu     2.905244    3.690770   12.568328    ( 0.0000,  0.0000,  0.0000)
  32 Cu     2.904330    3.677283   15.207880    ( 0.0000,  0.0000,  0.0000)
  33 Cu     1.597514    5.518480   16.539678    ( 0.0000,  0.0000,  0.0000)
  34 Cu     4.214996    5.518912   16.524832    ( 0.0000,  0.0000,  0.0000)
  35 Cu     0.286967    3.675886   15.218016    ( 0.0000,  0.0000,  0.0000)
  36 Cu     0.295435    3.657998   17.844635    ( 0.0000,  0.0000,  0.0000)
  37 Cu     4.211775    5.500317   19.139524    ( 0.0000,  0.0000,  0.0000)
  38 Cu     1.601486    5.496917   19.186202    ( 0.0000,  0.0000,  0.0000)
  39 Cu     2.906885    3.659550   17.836731    ( 0.0000,  0.0000,  0.0000)
  40 Cu     2.902545    3.638328   20.464858    ( 0.0000,  0.0000,  0.0000)
  41 Cu     1.601275    5.475911   21.865591    ( 0.0000,  0.0000,  0.0000)
  42 Cu     4.203980    5.480856   21.757225    ( 0.0000,  0.0000,  0.0000)
  43 Cu     0.301434    3.637109   20.470215    ( 0.0000,  0.0000,  0.0000)
  44 Cu     0.334848    3.620365   23.083114    ( 0.0000,  0.0000,  0.0000)
  45 Cu     4.097845    5.466281   24.356018    ( 0.0000,  0.0000,  0.0000)
  46 Cu     1.597106    5.443307   24.728061    ( 0.0000,  0.0000,  0.0000)
  47 Cu     2.870876    3.622163   23.080972    ( 0.0000,  0.0000,  0.0000)
  48 Cu     6.811253    1.845071   11.310635    ( 0.0000,  0.0000,  0.0000)
  49 Cu     5.425066    0.005561    9.891464    ( 0.0000,  0.0000,  0.0000)
  50 Cu     5.513208   -0.011242   12.561819    ( 0.0000,  0.0000,  0.0000)
  51 Cu     6.825549    1.832604   13.893420    ( 0.0000,  0.0000,  0.0000)
  52 Cu     6.834184    1.817779   16.514191    ( 0.0000,  0.0000,  0.0000)
  53 Cu     5.521623   -0.025344   15.199866    ( 0.0000,  0.0000,  0.0000)
  54 Cu     5.527705   -0.041271   17.823038    ( 0.0000,  0.0000,  0.0000)
  55 Cu     6.842966    1.798753   19.136005    ( 0.0000,  0.0000,  0.0000)
  56 Cu     6.849849    1.778838   21.754016    ( 0.0000,  0.0000,  0.0000)
  57 Cu     5.526568   -0.060575   20.427036    ( 0.0000,  0.0000,  0.0000)
  58 Cu     5.527611   -0.075268   22.966519    ( 0.0000,  0.0000,  0.0000)
  59 Cu     6.953824    1.762286   24.347880    ( 0.0000,  0.0000,  0.0000)
  60 Cu     6.810090    5.544577   11.305233    ( 0.0000,  0.0000,  0.0000)
  61 Cu     5.449184    3.705924    9.889579    ( 0.0000,  0.0000,  0.0000)
  62 Cu     5.512403    3.691561   12.560150    ( 0.0000,  0.0000,  0.0000)
  63 Cu     6.825150    5.534348   13.892364    ( 0.0000,  0.0000,  0.0000)
  64 Cu     6.834379    5.518003   16.514675    ( 0.0000,  0.0000,  0.0000)
  65 Cu     5.521087    3.675339   15.199821    ( 0.0000,  0.0000,  0.0000)
  66 Cu     5.526983    3.659073   17.823030    ( 0.0000,  0.0000,  0.0000)
  67 Cu     6.843345    5.500051   19.137382    ( 0.0000,  0.0000,  0.0000)
  68 Cu     6.849951    5.481253   21.755861    ( 0.0000,  0.0000,  0.0000)
  69 Cu     5.526881    3.641425   20.425332    ( 0.0000,  0.0000,  0.0000)
  70 Cu     5.527475    3.627123   22.964302    ( 0.0000,  0.0000,  0.0000)
  71 Cu     6.949976    5.466330   24.350698    ( 0.0000,  0.0000,  0.0000)
  72 Cl     3.161930    1.693794   26.429894    ( 0.0000,  0.0000,  0.0000)
  73 Cl     4.214695    3.700048    7.898950    ( 0.0000,  0.0000,  0.0000)
  74 Cl     5.522610    7.266681   25.306181    ( 0.0000,  0.0000,  0.0000)
  75 Cl     1.775890   -1.887328    8.830925    ( 0.0000,  0.0000,  0.0000)
  76 Cl     4.186262   -0.000936    7.901277    ( 0.0000,  0.0000,  0.0000)
  77 Cl     3.152192    5.387650   26.432720    ( 0.0000,  0.0000,  0.0000)
  78 Cl     6.650206    5.585892    8.799829    ( 0.0000,  0.0000,  0.0000)
  79 Cl     0.047876    1.685194   26.426257    ( 0.0000,  0.0000,  0.0000)
  80 Cl     5.527284    3.566641   25.303719    ( 0.0000,  0.0000,  0.0000)
  81 Cl     1.768440    1.840882    8.827199    ( 0.0000,  0.0000,  0.0000)
  82 Cl     6.644673    1.857383    8.804906    ( 0.0000,  0.0000,  0.0000)
  83 Cl     0.038525    5.392406   26.430440    ( 0.0000,  0.0000,  0.0000)

Unit cell:
           periodic     x           y           z      points  spacing
  1. axis:    yes    7.851007    0.000000    0.000000    45     0.1745
  2. axis:    yes    0.000000    7.402000    0.000000    42     0.1762
  3. axis:    yes    0.000000    0.000000   34.393512   196     0.1755

  Lengths:   7.851007   7.402000  34.393512
  Angles:   90.000000  90.000000  90.000000

Effective grid spacing dv^(1/3) = 0.1754

     iter     time        total  log10-change:
                         energy  eigst   dens
iter:   1 20:36:23 -5892.366650  -4.20
iter:   2 20:38:01 -5892.735443  -3.63  -2.93
iter:   3 20:39:23 -5892.323010c -4.15  -2.52
iter:   4 20:41:07 -5892.310247c -5.10  -3.41
iter:   5 20:42:27 -5892.306649c -5.73  -3.75
iter:   6 20:43:58 -5892.305636c -5.93  -4.06c
iter:   7 20:45:21 -5892.305970c -6.77  -4.18c
iter:   8 20:47:04 -5892.306192c -7.17  -4.39c
iter:   9 20:48:28 -5892.306358c -7.36  -4.48c
iter:  10 20:49:56 -5892.306054c -7.35  -4.61c
iter:  11 20:51:34 -5892.306393c -7.88c -4.81c

Converged after 11 iterations.

Dipole moment: (-75.591031, 32.393477, -0.218772) |e|*Ang

Energy contributions relative to reference atoms: (reference = -3392203.925309)

Kinetic:       +652.722347
Potential:     -691.551412
External:        +0.000000
XC:            -5852.200599
Entropy (-ST):   -0.746428
Local:           -0.903515
--------------------------
Free energy:   -5892.679607
Extrapolated:  -5892.306393

Showing only first 2 kpts
 Kpt  Band  Eigenvalues  Occupancy
  0   436      0.48964    1.75684
  0   437      0.68179    1.02801
  0   438      0.88448    0.24461
  0   439      0.90784    0.19871

  1   436      0.38336    1.90873
  1   437      0.39459    1.89844
  1   438      0.51213    1.70458
  1   439      0.51432    1.69901


Fermi level: 0.68740

No gap

Forces in eV/Ang:
  0 Cu    0.01232   -0.01125   -0.00781
  1 Cu    0.00315   -0.00900   -0.00182
  2 Cu    0.00069    0.00066   -0.01128
  3 Cu    0.00509   -0.01047   -0.00264
  4 Cu   -0.00535   -0.00449    0.00838
  5 Cu    0.00168    0.00355   -0.00757
  6 Cu    0.00120   -0.00377   -0.00355
  7 Cu    0.00380   -0.00277   -0.00004
  8 Cu   -0.00078    0.00120   -0.00390
  9 Cu   -0.00208   -0.00486    0.00319
 10 Cu   -0.00125   -0.00166   -0.00482
 11 Cu    0.00284   -0.00567    0.00413
 12 Cu   -0.00063   -0.00383   -0.00656
 13 Cu    0.00160    0.00092   -0.00510
 14 Cu   -0.00357   -0.00161    0.00158
 15 Cu   -0.00051   -0.00181   -0.00099
 16 Cu    0.00419    0.00550    0.00146
 17 Cu   -0.00489    0.00663    0.01212
 18 Cu   -0.00044    0.00397   -0.00599
 19 Cu   -0.00154    0.00336   -0.00772
 20 Cu    0.00075    0.00499   -0.00513
 21 Cu    0.00244    0.00748   -0.00236
 22 Cu   -0.00730    0.01271    0.01270
 23 Cu   -0.00446    0.01194   -0.00062
 24 Cu    0.00845   -0.00782   -0.00493
 25 Cu    0.00237   -0.00538    0.00580
 26 Cu    0.00045   -0.00695   -0.00853
 27 Cu    0.00063   -0.00940   -0.00295
 28 Cu   -0.00021   -0.00757    0.00276
 29 Cu    0.00042   -0.00040   -0.00991
 30 Cu    0.00536   -0.00831    0.00007
 31 Cu   -0.00035   -0.01035   -0.00160
 32 Cu   -0.00106   -0.00477    0.00381
 33 Cu    0.00126   -0.00367    0.00582
 34 Cu   -0.00376   -0.00567   -0.00612
 35 Cu    0.00023   -0.00102    0.00117
 36 Cu   -0.00230   -0.00024   -0.00377
 37 Cu    0.00152   -0.00186   -0.00194
 38 Cu   -0.00063   -0.00077    0.00297
 39 Cu   -0.00165   -0.00520    0.00117
 40 Cu    0.00353    0.00097   -0.00090
 41 Cu    0.00075    0.00471    0.01448
 42 Cu    0.00072    0.00179   -0.00172
 43 Cu   -0.00179    0.00309   -0.00289
 44 Cu    0.00854    0.00953    0.00029
 45 Cu    0.00756   -0.00058   -0.00878
 46 Cu    0.00811    0.00495    0.00918
 47 Cu   -0.01092    0.00291   -0.00039
 48 Cu   -0.00526   -0.00503   -0.00772
 49 Cu   -0.00006   -0.01278   -0.00310
 50 Cu    0.00322   -0.00409   -0.00268
 51 Cu    0.00014   -0.00169   -0.00525
 52 Cu   -0.00011   -0.00316    0.00108
 53 Cu   -0.00018   -0.00081    0.00240
 54 Cu   -0.00383   -0.00333   -0.00408
 55 Cu   -0.00232   -0.00064   -0.00092
 56 Cu    0.00316    0.00438   -0.00190
 57 Cu    0.00271    0.00146   -0.00233
 58 Cu   -0.00169    0.00558   -0.01044
 59 Cu    0.00068    0.00907    0.01058
 60 Cu    0.00042   -0.00770    0.00224
 61 Cu   -0.00877   -0.00351   -0.00367
 62 Cu   -0.00021   -0.00577    0.00106
 63 Cu    0.00054   -0.00463   -0.00118
 64 Cu   -0.00066   -0.00046   -0.00033
 65 Cu    0.00258    0.00135   -0.00274
 66 Cu   -0.00138   -0.00070   -0.00528
 67 Cu   -0.00331   -0.00016   -0.00743
 68 Cu    0.00323    0.00063   -0.00919
 69 Cu    0.00137   -0.00143    0.00396
 70 Cu   -0.00267    0.00347   -0.00299
 71 Cu    0.00009   -0.00150   -0.00413
 72 Cl   -0.01116    0.01124    0.01062
 73 Cl    0.00804   -0.00164    0.01607
 74 Cl    0.00158    0.01331    0.01134
 75 Cl   -0.01052    0.01846    0.01092
 76 Cl    0.00567    0.00039    0.01347
 77 Cl    0.00282    0.01713    0.00490
 78 Cl   -0.01370   -0.01344    0.01478
 79 Cl   -0.00798    0.01714   -0.00919
 80 Cl    0.00649    0.01046    0.00909
 81 Cl    0.00384    0.01237    0.00671
 82 Cl   -0.01253   -0.00765    0.00631
 83 Cl    0.00705    0.01300   -0.00007

Timing:                                      incl.     excl.
-------------------------------------------------------------------
Density initialized from wave functions:   377.351   377.348   0.4% |
 Symmetrize density:                         0.003     0.003   0.0% |
Forces:                                   1829.233  1829.233   1.8% ||
Hamiltonian:                               515.962     1.073   0.0% |
 Atomic:                                    26.176    10.187   0.0% |
  XC Correction:                            15.989    15.989   0.0% |
 Calculate atomic Hamiltonians:            161.027   161.027   0.2% |
 Communicate:                                4.630     4.630   0.0% |
 Initialize Hamiltonian:                     0.002     0.002   0.0% |
 Poisson:                                    0.376     0.376   0.0% |
 XC 3D grid:                               322.677    46.173   0.0% |
  VdW-DF integral:                         276.504    11.815   0.0% |
   Convolution:                             19.009    19.009   0.0% |
   FFT:                                      9.982     9.982   0.0% |
   gather:                                  91.054    91.054   0.1% |
   hmm1:                                     6.053     6.053   0.0% |
   hmm2:                                    14.639    14.639   0.0% |
   iFFT:                                    10.429    10.429   0.0% |
   potential:                              108.001     1.490   0.0% |
    collect:                                15.860    15.860   0.0% |
    p1:                                     51.606    51.606   0.1% |
    p2:                                     20.610    20.610   0.0% |
    sum:                                    18.435    18.435   0.0% |
   splines:                                  5.523     5.523   0.0% |
LCAO initialization:                       470.170     0.651   0.0% |
 LCAO eigensolver:                          17.137     0.002   0.0% |
  Blacs Orbital Layouts:                     1.273     0.001   0.0% |
   General diagonalize:                      1.253     1.253   0.0% |
   Redistribute coefs:                       0.012     0.012   0.0% |
   Send coefs to domains:                    0.007     0.007   0.0% |
  Calculate projections:                     0.023     0.023   0.0% |
  Distribute overlap matrix:                15.284     0.001   0.0% |
   Scalapack redistribute:                   0.017     0.017   0.0% |
   blocked summation:                       15.265    15.265   0.0% |
  Potential matrix:                          0.387     0.387   0.0% |
  SparseAtomicCorrection:                    0.026     0.026   0.0% |
  Sum over cells:                            0.143     0.143   0.0% |
 LCAO to grid:                             448.844   448.844   0.4% |
 Set positions (LCAO WFS):                   3.537     0.074   0.0% |
  Basic WFS set positions:                   0.004     0.004   0.0% |
  Basis functions set positions:             0.001     0.001   0.0% |
  P tci:                                     0.113     0.113   0.0% |
  ST tci:                                    0.712     0.712   0.0% |
  Scalapack redistribute:                    0.035     0.035   0.0% |
  blocked summation:                         2.334     2.334   0.0% |
  mktci:                                     0.263     0.263   0.0% |
PWDescriptor:                                0.979     0.979   0.0% |
Redistribute:                                0.203     0.203   0.0% |
SCF-cycle:                               96076.598  3279.926   3.3% ||
 Davidson:                               75028.240 20490.617  20.5% |-------|
  Apply H:                                6251.743  6132.344   6.1% |-|
   HMM T:                                  119.399   119.399   0.1% |
  Subspace diag:                         12179.138     0.285   0.0% |
   calc_h_matrix:                         8501.197  2320.655   2.3% ||
    Apply H:                              6180.542  6043.913   6.1% |-|
     HMM T:                                136.629   136.629   0.1% |
   diagonalize:                            411.738   411.738   0.4% |
   rotate_psi:                            3265.919  3265.919   3.3% ||
  calc. matrices:                        27058.222 14930.062  15.0% |-----|
   Apply H:                              12128.160 11890.446  11.9% |----|
    HMM T:                                 237.714   237.714   0.2% |
  diagonalize:                            2859.827  2859.827   2.9% ||
  rotate_psi:                             6188.693  6188.693   6.2% |-|
 Density:                                 7315.432     0.056   0.0% |
  Atomic density matrices:                  24.255    24.255   0.0% |
  Mix:                                    3763.181  3763.181   3.8% |-|
  Multipole moments:                         1.330     1.330   0.0% |
  Pseudo density:                         3526.611  3526.561   3.5% ||
   Symmetrize density:                       0.049     0.049   0.0% |
 Hamiltonian:                            10042.964    20.111   0.0% |
  Atomic:                                  469.347   170.329   0.2% |
   XC Correction:                          299.018   299.018   0.3% |
  Calculate atomic Hamiltonians:          3181.884  3181.884   3.2% ||
  Communicate:                             124.087   124.087   0.1% |
  Poisson:                                   6.945     6.945   0.0% |
  XC 3D grid:                             6240.589   896.514   0.9% |
   VdW-DF integral:                       5344.075   219.711   0.2% |
    Convolution:                           351.928   351.928   0.4% |
    FFT:                                   186.333   186.333   0.2% |
    gather:                               1920.668  1920.668   1.9% ||
    hmm1:                                  112.743   112.743   0.1% |
    hmm2:                                  270.338   270.338   0.3% |
    iFFT:                                  196.602   196.602   0.2% |
    potential:                            2085.740    27.787   0.0% |
     collect:                              302.585   302.585   0.3% |
     p1:                                   989.479   989.479   1.0% |
     p2:                                   387.315   387.315   0.4% |
     sum:                                  378.574   378.574   0.4% |
    splines:                                 0.013     0.013   0.0% |
 Orthonormalize:                           410.036     0.023   0.0% |
  calc_s_matrix:                            57.639    57.639   0.1% |
  inverse-cholesky:                         13.757    13.757   0.0% |
  projections:                             252.772   252.772   0.3% |
  rotate_psi_s:                             85.844    85.844   0.1% |
Set symmetry:                                0.002     0.002   0.0% |
Other:                                     548.972   548.972   0.5% |
-------------------------------------------------------------------
Total:                                             99819.470 100.0%

Memory usage: 1.60 GiB
Date: Sat Oct 15 20:52:08 2022
