
  ___ ___ ___ _ _ _  
 |   |   |_  | | | | 
 | | | | | . | | | | 
 |__ |  _|___|_____|  22.1.0
 |___|_|             

User:   thorkong@node250.cluster
Date:   Wed Oct 19 22:06:41 2022
Arch:   x86_64
Pid:    235012
Python: 3.10.5
gpaw:   /groups/kemi/thorkong/miniconda3/envs/gpaw22/lib/python3.10/site-packages/gpaw
_gpaw:  /groups/kemi/thorkong/miniconda3/envs/gpaw22/lib/python3.10/site-packages/
        _gpaw.cpython-310-x86_64-linux-gnu.so
ase:    /groups/kemi/thorkong/miniconda3/envs/gpaw22/lib/python3.10/site-packages/ase (version 3.22.1)
numpy:  /groups/kemi/thorkong/miniconda3/envs/gpaw22/lib/python3.10/site-packages/numpy (version 1.23.0)
scipy:  /groups/kemi/thorkong/miniconda3/envs/gpaw22/lib/python3.10/site-packages/scipy (version 1.8.1)
libxc:  5.2.3
units:  Angstrom and eV
cores: 32
OpenMP: True
OMP_NUM_THREADS: 1

Input parameters:
  basis: dzp
  kpts: [4 4 1]
  mode: {ecut: 600.0,
         name: pw}
  xc: BEEF-vdW

System changes: positions, numbers, cell, pbc, initial_charges, initial_magmoms 

Initialize ...

Cu-setup:
  name: Copper
  id: f1c4d45d90492f1bbfdcb091e8418fdf
  Z: 29.0
  valence: 11
  core: 18
  charge: 0.0
  file: /groups/kemi/thorkong/miniconda3/envs/gpaw22/share/gpaw/Cu.PBE.gz
  compensation charges: gauss, rc=0.33, lmax=2
  cutoffs: 2.06(filt), 2.43(core),
  valence states:
                energy  radius
    4s(1.00)    -4.609   1.164
    4p(0.00)    -0.698   1.164
    3d(10.00)    -5.039   1.058
    *s          22.603   1.164
    *p          26.513   1.164
    *d          22.172   1.058

  LCAO basis set for Cu:
    Name: dzp
    File: /groups/kemi/thorkong/miniconda3/envs/gpaw22/share/gpaw/Cu.dzp.basis.gz
    Number of radial functions: 5
    Number of spherical harmonics: 15
      l=0, rc=8.9688 Bohr: 4s-sz confined orbital
      l=2, rc=5.1719 Bohr: 3d-sz confined orbital
      l=0, rc=5.3281 Bohr: 4s-dz split-valence wave
      l=2, rc=3.1406 Bohr: 3d-dz split-valence wave
      l=1, rc=8.9688 Bohr: p-type Gaussian polarization

Cl-setup:
  name: Chlorine
  id: 726897f06f34e53cf8e33b5885a02604
  Z: 17.0
  valence: 7
  core: 10
  charge: 0.0
  file: /groups/kemi/thorkong/miniconda3/envs/gpaw22/share/gpaw/Cl.PBE.gz
  compensation charges: gauss, rc=0.25, lmax=2
  cutoffs: 1.40(filt), 1.49(core),
  valence states:
                energy  radius
    3s(2.00)   -20.689   0.794
    3p(5.00)    -8.594   0.794
    *s           6.523   0.794
    *p          18.617   0.794
    *d           0.000   0.794

  LCAO basis set for Cl:
    Name: dzp
    File: /groups/kemi/thorkong/miniconda3/envs/gpaw22/share/gpaw/Cl.dzp.basis.gz
    Number of radial functions: 5
    Number of spherical harmonics: 13
      l=0, rc=5.1719 Bohr: 3s-sz confined orbital
      l=1, rc=6.2656 Bohr: 3p-sz confined orbital
      l=0, rc=2.8281 Bohr: 3s-dz split-valence wave
      l=1, rc=3.5156 Bohr: 3p-dz split-valence wave
      l=2, rc=6.2656 Bohr: d-type Gaussian polarization

Reference energy: -4397389.073122

Spin-paired calculation

Convergence criteria:
 Maximum [total energy] change in last 3 cyles: 0.0005 eV / electron
 Maximum integral of absolute [dens]ity change: 0.0001 electrons / valence electron
 Maximum integral of absolute [eigenst]ate change: 4e-08 eV^2 / valence electron
 Maximum number of scf [iter]ations: 333
 (Square brackets indicate name in SCF output, whereas a 'c' in
 the SCF output indicates the quantity has converged.)

Symmetries present (total): 1

  ( 1  0  0)
  ( 0  1  0)
  ( 0  0  1)

16 k-points: 4 x 4 x 1 Monkhorst-Pack grid
8 k-points in the irreducible part of the Brillouin zone
       k-points in crystal coordinates                weights
   0:     0.12500000   -0.37500000    0.00000000          2/16
   1:     0.12500000   -0.12500000    0.00000000          2/16
   2:     0.12500000    0.12500000    0.00000000          2/16
   3:     0.12500000    0.37500000    0.00000000          2/16
   4:     0.37500000   -0.37500000    0.00000000          2/16
   5:     0.37500000   -0.12500000    0.00000000          2/16
   6:     0.37500000    0.12500000    0.00000000          2/16
   7:     0.37500000    0.37500000    0.00000000          2/16

Wave functions: Plane wave expansion
  Cutoff energy: 600.000 eV
  Number of coefficients (min, max): 96699, 96750
  Pulay-stress correction: 0.000000 eV/Ang^3 (de/decut=0.000000)
  Using FFTW library
  ScaLapack parameters: grid=2x2, blocksize=64
  Wavefunction extrapolation:
    Improved wavefunction reuse through dual PAW basis 

Occupation numbers: Fermi-Dirac: width=0.1000 eV
 

Eigensolver
   Davidson(niter=2) 

Densities:
  Coarse grid: 70*42*192 grid
  Fine grid: 140*84*384 grid
  Total Charge: 0.000000 

Density mixing:
  Method: separate
  Backend: pulay
  Linear mixing parameter: 0.05
  Mixing with 5 old densities
  Damping of long wave oscillations: 50 

Hamiltonian:
  XC and Coulomb potentials evaluated on a 140*84*384 grid
  Using the BEEF-vdW Exchange-Correlation functional
  External potential:
    NoExternalPotential
 

XC parameters: BEEF-vdW with 2 nearest neighbor stencil

Memory estimate:
  Process memory now: 345.41 MiB
  Calculator: 2152.41 MiB
    Density: 70.86 MiB
      Arrays: 27.99 MiB
      Localized functions: 32.10 MiB
      Mixer: 10.77 MiB
    Hamiltonian: 19.09 MiB
      Arrays: 18.30 MiB
      XC: 0.00 MiB
      Poisson: 0.00 MiB
      vbar: 0.78 MiB
    Wavefunctions: 2062.47 MiB
      Arrays psit_nG: 978.78 MiB
      Eigensolver: 1053.25 MiB
      Projections: 4.57 MiB
      Projectors: 3.69 MiB
      PW-descriptor: 22.18 MiB

Total number of cores used: 32
Parallelization over k-points: 8
Domain decomposition: 1 x 1 x 4
                      2 x 2 x 8 (xc only)

Number of atoms: 102
Number of atomic orbitals: 1518
Number of bands in calculation: 663
Number of valence electrons: 1098
Bands to converge: occupied

... initialized

Initializing position-dependent things.

Density initialized from atomic densities
Creating initial wave functions:
  663 bands from LCAO basis set

      .----------------------------.  
     /|                            |  
    / |                            |  
   /  |                            |  
  /   |                            |  
 *    |                            |  
 |    |                            |  
 |    |                            |  
 |    |                            |  
 |    |                            |  
 |    |                            |  
 |    |                            |  
 |    |           Cl               |  
 |    |                           Cu  
 |    |Cl     Cu             Cu    |  
 |    | Cu       Cu   Clu       Cu |  
 |    |     Cu   Cu       Cu    Cu |  
 |    Cu   Cu       Cu    Cu       |  
 |    Cu   Cu  Cu   Cu    Cu       |  
 |   Cu  Cu    Cu   Cu Cu    Cu    |  
 |    |  Cu   Cu       Cu    Cu    |  
 | Cu |  Cu   Cu  Cu   Cu    Cu    |  
 | Cu | Cu  Cu   Cu    Cu Cu       |  
 |    |     Cu   Cu       Cu    Cu |  
 |    Cu   Cu    Cu  Cu   Cu    Cu |  
 |    Cu   Cu  Cu   Cu    Cu Cu    |  
 |   Cu        Cu   Cu       Cu    |  
 |    |  Cu   Cu       Cu    Cu    |  
 | Cu |  Cu   Cu  Cu   Cu    Cu    |  
 | Cu | Cu  Cu   Cu    Cu Cu       |  
 |    |     Cu   Cu       Cu    Cu |  
 |    Cu  CCu        Cu   Cu       |  
 |    Cu       Cu   Cu       Cu    |  
 |    |         Cl                 |  
 |    |  Cu             Cu         |  
 |    |                            |  
 |    |                            |  
 |    |                            |  
 |    |                            |  
 |    |                            |  
 |    |                            |  
 |    .----------------------------.  
 |   /                            /   
 |  /                            /    
 | /                            /     
 |/                            /      
 *----------------------------*       

Positions:
   0 Cu     3.193138    0.102723   10.057630    ( 0.0000,  0.0000,  0.0000)
   1 Cu     1.401160    1.920847   10.688230    ( 0.0000,  0.0000,  0.0000)
   2 Cu     7.227869    1.846901   10.596634    ( 0.0000,  0.0000,  0.0000)
   3 Cu     9.067911    0.057699   10.031492    ( 0.0000,  0.0000,  0.0000)
   4 Cu    11.374594    0.057639   11.228257    ( 0.0000,  0.0000,  0.0000)
   5 Cu     9.663226    1.890401   11.802258    ( 0.0000,  0.0000,  0.0000)
   6 Cu     3.798973    1.863570   11.755177    ( 0.0000,  0.0000,  0.0000)
   7 Cu     5.514560    0.015293   11.207848    ( 0.0000,  0.0000,  0.0000)
   8 Cu     7.886061    0.038990   12.330961    ( 0.0000,  0.0000,  0.0000)
   9 Cu     6.135501    1.908454   12.892841    ( 0.0000,  0.0000,  0.0000)
  10 Cu     0.267203    1.878392   12.969392    ( 0.0000,  0.0000,  0.0000)
  11 Cu     2.025916    0.025805   12.356176    ( 0.0000,  0.0000,  0.0000)
  12 Cu     4.365201    0.030845   13.525822    ( 0.0000,  0.0000,  0.0000)
  13 Cu     2.618213    1.897809   14.110260    ( 0.0000,  0.0000,  0.0000)
  14 Cu     8.468157    1.881390   14.112432    ( 0.0000,  0.0000,  0.0000)
  15 Cu    10.207032    0.006731   13.522283    ( 0.0000,  0.0000,  0.0000)
  16 Cu     0.872535    0.027236   14.694313    ( 0.0000,  0.0000,  0.0000)
  17 Cu    10.811586    1.878196   15.280400    ( 0.0000,  0.0000,  0.0000)
  18 Cu     4.972341    1.880596   15.250991    ( 0.0000,  0.0000,  0.0000)
  19 Cu     6.721079    0.027129   14.668600    ( 0.0000,  0.0000,  0.0000)
  20 Cu     9.058725    0.028296   15.861585    ( 0.0000,  0.0000,  0.0000)
  21 Cu     7.302799    1.874445   16.443436    ( 0.0000,  0.0000,  0.0000)
  22 Cu     1.457940    1.877203   16.457614    ( 0.0000,  0.0000,  0.0000)
  23 Cu     3.211367    0.028831   15.855737    ( 0.0000,  0.0000,  0.0000)
  24 Cu     5.555550    0.025620   17.021274    ( 0.0000,  0.0000,  0.0000)
  25 Cu     3.798385    1.877697   17.612339    ( 0.0000,  0.0000,  0.0000)
  26 Cu     9.641953    1.877862   17.627693    ( 0.0000,  0.0000,  0.0000)
  27 Cu    11.404549    0.021356   17.024305    ( 0.0000,  0.0000,  0.0000)
  28 Cu     2.048113    0.027052   18.203728    ( 0.0000,  0.0000,  0.0000)
  29 Cu     0.279942    1.876177   18.778929    ( 0.0000,  0.0000,  0.0000)
  30 Cu     6.139598    1.876426   18.787095    ( 0.0000,  0.0000,  0.0000)
  31 Cu     7.890589    0.028315   18.201831    ( 0.0000,  0.0000,  0.0000)
  32 Cu    10.238616    0.032011   19.361183    ( 0.0000,  0.0000,  0.0000)
  33 Cu     8.479495    1.876746   19.991947    ( 0.0000,  0.0000,  0.0000)
  34 Cu     2.633227    1.876300   19.988454    ( 0.0000,  0.0000,  0.0000)
  35 Cu     4.395197    0.044972   19.362372    ( 0.0000,  0.0000,  0.0000)
  36 Cu     6.742675    0.037028   20.541831    ( 0.0000,  0.0000,  0.0000)
  37 Cu     4.996963    1.894366   21.185198    ( 0.0000,  0.0000,  0.0000)
  38 Cu    10.839598    1.875134   21.155083    ( 0.0000,  0.0000,  0.0000)
  39 Cu     0.892016    0.052264   20.530822    ( 0.0000,  0.0000,  0.0000)
  40 Cu     3.207364    0.014383   21.700639    ( 0.0000,  0.0000,  0.0000)
  41 Cu     1.420305    1.879566   22.404803    ( 0.0000,  0.0000,  0.0000)
  42 Cu     7.297364    1.860030   22.411165    ( 0.0000,  0.0000,  0.0000)
  43 Cu     9.065032    0.023256   21.711718    ( 0.0000,  0.0000,  0.0000)
  44 Cu    11.415569   -0.021700   22.815974    ( 0.0000,  0.0000,  0.0000)
  45 Cu     9.756401    1.874036   23.432233    ( 0.0000,  0.0000,  0.0000)
  46 Cu     3.857990    1.833004   23.422690    ( 0.0000,  0.0000,  0.0000)
  47 Cu     5.570909    0.002444   22.822273    ( 0.0000,  0.0000,  0.0000)
  48 Cu     3.133175    3.678394   10.032209    ( 0.0000,  0.0000,  0.0000)
  49 Cu     1.356700    5.541951   10.548298    ( 0.0000,  0.0000,  0.0000)
  50 Cu     7.335379    5.627762   10.648543    ( 0.0000,  0.0000,  0.0000)
  51 Cu     9.047183    3.716843   10.037585    ( 0.0000,  0.0000,  0.0000)
  52 Cu    11.383084    3.720619   11.207255    ( 0.0000,  0.0000,  0.0000)
  53 Cu     9.670682    5.582056   11.650081    ( 0.0000,  0.0000,  0.0000)
  54 Cu     3.772170    5.601339   11.749675    ( 0.0000,  0.0000,  0.0000)
  55 Cu     5.560278    3.774448   11.086972    ( 0.0000,  0.0000,  0.0000)
  56 Cu     7.881543    3.733758   12.320410    ( 0.0000,  0.0000,  0.0000)
  57 Cu     6.115216    5.562606   12.922884    ( 0.0000,  0.0000,  0.0000)
  58 Cu     0.278322    5.584223   12.922881    ( 0.0000,  0.0000,  0.0000)
  59 Cu     2.029016    3.764629   12.305876    ( 0.0000,  0.0000,  0.0000)
  60 Cu     4.376823    3.728894   13.477013    ( 0.0000,  0.0000,  0.0000)
  61 Cu     2.619579    5.571720   14.110052    ( 0.0000,  0.0000,  0.0000)
  62 Cu     8.468489    5.579543   14.102450    ( 0.0000,  0.0000,  0.0000)
  63 Cu    10.210548    3.754441   13.520892    ( 0.0000,  0.0000,  0.0000)
  64 Cu     0.871157    3.729531   14.683192    ( 0.0000,  0.0000,  0.0000)
  65 Cu    10.818850    5.580003   15.267845    ( 0.0000,  0.0000,  0.0000)
  66 Cu     4.966801    5.575848   15.267111    ( 0.0000,  0.0000,  0.0000)
  67 Cu     6.724860    3.733276   14.683911    ( 0.0000,  0.0000,  0.0000)
  68 Cu     9.060364    3.726705   15.862073    ( 0.0000,  0.0000,  0.0000)
  69 Cu     7.306284    5.578422   16.448402    ( 0.0000,  0.0000,  0.0000)
  70 Cu     1.458259    5.575709   16.452341    ( 0.0000,  0.0000,  0.0000)
  71 Cu     3.216837    3.731028   15.851489    ( 0.0000,  0.0000,  0.0000)
  72 Cu     5.553087    3.722637   17.016782    ( 0.0000,  0.0000,  0.0000)
  73 Cu     3.805368    5.578800   17.619239    ( 0.0000,  0.0000,  0.0000)
  74 Cu     9.648823    5.574695   17.611595    ( 0.0000,  0.0000,  0.0000)
  75 Cu    11.407188    3.730408   17.020848    ( 0.0000,  0.0000,  0.0000)
  76 Cu     2.047460    3.722521   18.198486    ( 0.0000,  0.0000,  0.0000)
  77 Cu     0.288251    5.575342   18.795190    ( 0.0000,  0.0000,  0.0000)
  78 Cu     6.139407    5.567865   18.789487    ( 0.0000,  0.0000,  0.0000)
  79 Cu     7.888017    3.719305   18.207212    ( 0.0000,  0.0000,  0.0000)
  80 Cu    10.241235    3.716722   19.362632    ( 0.0000,  0.0000,  0.0000)
  81 Cu     8.494119    5.567470   19.938272    ( 0.0000,  0.0000,  0.0000)
  82 Cu     2.643677    5.571921   19.944876    ( 0.0000,  0.0000,  0.0000)
  83 Cu     4.394988    3.709793   19.362625    ( 0.0000,  0.0000,  0.0000)
  84 Cu     6.733047    3.697102   20.576700    ( 0.0000,  0.0000,  0.0000)
  85 Cu     4.978824    5.567229   21.107404    ( 0.0000,  0.0000,  0.0000)
  86 Cu    10.842961    5.573769   21.109176    ( 0.0000,  0.0000,  0.0000)
  87 Cu     0.897842    3.697537   20.535395    ( 0.0000,  0.0000,  0.0000)
  88 Cu     3.217998    3.729657   21.716271    ( 0.0000,  0.0000,  0.0000)
  89 Cu     1.475889    5.574865   22.251701    ( 0.0000,  0.0000,  0.0000)
  90 Cu     7.350002    5.579745   22.238099    ( 0.0000,  0.0000,  0.0000)
  91 Cu     9.057882    3.717079   21.723474    ( 0.0000,  0.0000,  0.0000)
  92 Cu    11.406650    3.767391   22.816651    ( 0.0000,  0.0000,  0.0000)
  93 Cu     9.684599    5.571920   23.352993    ( 0.0000,  0.0000,  0.0000)
  94 Cu     3.738332    5.624317   23.400955    ( 0.0000,  0.0000,  0.0000)
  95 Cu     5.589188    3.734115   22.918681    ( 0.0000,  0.0000,  0.0000)
  96 Cl     5.464742    5.141147   24.836491    ( 0.0000,  0.0000,  0.0000)
  97 Cl     2.026638    1.846310   24.745250    ( 0.0000,  0.0000,  0.0000)
  98 Cl     7.913964    1.677838   24.734753    ( 0.0000,  0.0000,  0.0000)
  99 Cl     5.002049    3.786672    8.754760    ( 0.0000,  0.0000,  0.0000)
 100 Cl     1.614380   -0.624698    8.562596    ( 0.0000,  0.0000,  0.0000)
 101 Cl    -3.105986    1.892166    8.543978    ( 0.0000,  0.0000,  0.0000)

Unit cell:
           periodic     x           y           z      points  spacing
  1. axis:    yes   11.703590    0.000000    0.000000    70     0.1672
  2. axis:    yes    0.000000    7.402000    0.000000    42     0.1762
  3. axis:    no     0.000000    0.000000   33.459128   192     0.1743

  Lengths:  11.703590   7.402000  33.459128
  Angles:   90.000000  90.000000  90.000000

Effective grid spacing dv^(1/3) = 0.1725

     iter     time        total  log10-change:
                         energy  eigst   dens
iter:   1 22:27:39 -7676.360736
iter:   2 22:30:32 -7799.217911  +0.57  -1.02
iter:   3 22:33:24 -7579.982017  -0.06  -0.96
iter:   4 22:36:18 -7536.227092  -1.16  -1.22
iter:   5 22:39:12 -7725.343439  -0.85  -1.36
iter:   6 22:42:04 -7514.635251  -1.44  -1.09
iter:   7 22:44:57 -7506.735634  -1.99  -1.55
iter:   8 22:47:50 -7499.577090  -1.75  -1.59
iter:   9 22:50:43 -7501.804983  -2.12  -1.69
iter:  10 22:53:36 -7498.413291  -2.14  -1.68
iter:  11 22:56:30 -7500.672848  -1.61  -1.78
iter:  12 22:59:21 -7493.281254  -1.99  -1.82
iter:  13 23:02:14 -7496.564731  -2.27  -2.01
iter:  14 23:05:07 -7491.352524  -2.47  -1.92
iter:  15 23:08:01 -7491.489417  -2.63  -2.31
iter:  16 23:10:55 -7491.157042c -3.49  -2.43
iter:  17 23:13:49 -7490.724291  -2.84  -2.54
iter:  18 23:16:43 -7490.708208c -3.86  -2.79
iter:  19 23:19:38 -7490.692430c -4.51  -2.87
iter:  20 23:22:33 -7490.703391c -4.20  -2.94
iter:  21 23:25:27 -7490.685384c -4.31  -2.98
iter:  22 23:28:21 -7490.686305c -4.88  -3.22
iter:  23 23:31:15 -7490.683931c -4.76  -3.25
iter:  24 23:34:10 -7490.680840c -5.14  -3.47
iter:  25 23:37:06 -7490.680489c -5.46  -3.61
iter:  26 23:40:00 -7490.680465c -5.86  -3.68
iter:  27 23:42:55 -7490.680523c -5.37  -3.68
iter:  28 23:45:48 -7490.679886c -5.80  -3.80
iter:  29 23:48:41 -7490.679758c -6.14  -4.06c
iter:  30 23:51:35 -7490.679686c -7.07  -4.23c
iter:  31 23:54:27 -7490.679621c -6.19  -4.33c
iter:  32 23:57:19 -7490.679620c -7.49c -4.47c

Converged after 32 iterations.

Dipole moment: (22.128635, -17.846456, -0.054662) |e|*Ang

Energy contributions relative to reference atoms: (reference = -4397389.073122)

Kinetic:       +722.495327
Potential:     -800.225842
External:        +0.000000
XC:            -7411.156059
Entropy (-ST):   -0.963381
Local:           -1.311356
--------------------------
Free energy:   -7491.161310
Extrapolated:  -7490.679620

Showing only first 2 kpts
 Kpt  Band  Eigenvalues  Occupancy
  0   547      0.17408    0.76760
  0   548      0.26088    0.41452
  0   549      0.28711    0.33489
  0   550      0.33474    0.22210

  1   547     -0.11645    1.83844
  1   548     -0.06184    1.73654
  1   549     -0.03203    1.66057
  1   550      0.00504    1.54305


Fermi level: 0.12673

No gap

Forces in eV/Ang:
  0 Cu    0.00781   -0.00100   -0.00360
  1 Cu   -0.00290   -0.00385    0.00192
  2 Cu    0.00041   -0.00664   -0.00270
  3 Cu    0.00432   -0.00016   -0.01269
  4 Cu   -0.00235    0.00184    0.00033
  5 Cu   -0.00109   -0.00100    0.00122
  6 Cu   -0.00246   -0.00241    0.00423
  7 Cu   -0.00325   -0.00459   -0.00442
  8 Cu   -0.00374   -0.00145    0.00384
  9 Cu   -0.00161   -0.00041   -0.00023
 10 Cu   -0.00698    0.00152    0.00080
 11 Cu   -0.00115    0.00157    0.00323
 12 Cu    0.00030    0.00166    0.00552
 13 Cu   -0.00079    0.00136   -0.00231
 14 Cu   -0.00272   -0.00075   -0.00173
 15 Cu   -0.00249   -0.00040   -0.00107
 16 Cu   -0.00092   -0.00089   -0.00391
 17 Cu   -0.00205   -0.00141   -0.00005
 18 Cu    0.00597   -0.00120   -0.00151
 19 Cu   -0.00030   -0.00056   -0.00152
 20 Cu    0.00053   -0.00030   -0.00192
 21 Cu    0.00196    0.00234   -0.00139
 22 Cu    0.00019    0.00111   -0.00468
 23 Cu    0.00031    0.00234   -0.00216
 24 Cu   -0.00000   -0.00113    0.00209
 25 Cu    0.00105    0.00207   -0.00264
 26 Cu   -0.00280    0.00012    0.00345
 27 Cu    0.00014    0.00490   -0.00173
 28 Cu   -0.00244   -0.00124   -0.00184
 29 Cu    0.00143    0.00041    0.00211
 30 Cu   -0.00097    0.00098    0.00189
 31 Cu   -0.00082   -0.00048   -0.00015
 32 Cu    0.00049   -0.00022   -0.00014
 33 Cu   -0.00054   -0.00380    0.00331
 34 Cu    0.00157   -0.00051    0.00003
 35 Cu    0.00060   -0.00085    0.00082
 36 Cu    0.00450    0.00495   -0.00092
 37 Cu    0.00242    0.00214    0.00460
 38 Cu    0.00078   -0.00084   -0.00298
 39 Cu    0.00242    0.00402    0.00384
 40 Cu   -0.00080   -0.00008    0.00297
 41 Cu    0.00571    0.00021    0.00469
 42 Cu    0.00275    0.00651    0.00326
 43 Cu    0.00164   -0.00580   -0.00572
 44 Cu    0.00069   -0.00151    0.00223
 45 Cu    0.00877   -0.00118    0.00289
 46 Cu   -0.00220   -0.00336    0.01592
 47 Cu   -0.00142   -0.00313    0.00671
 48 Cu    0.00620   -0.00156   -0.01050
 49 Cu   -0.00623   -0.00063   -0.00816
 50 Cu   -0.00299   -0.00329   -0.00390
 51 Cu    0.00304   -0.00194   -0.01290
 52 Cu   -0.00289   -0.00438   -0.00583
 53 Cu    0.00050    0.00141    0.00317
 54 Cu   -0.00109    0.00344    0.00781
 55 Cu   -0.00098   -0.00110    0.00161
 56 Cu   -0.00017   -0.00160   -0.00059
 57 Cu    0.00157   -0.00021    0.00606
 58 Cu    0.00024    0.00088    0.00294
 59 Cu   -0.00300   -0.00147    0.00051
 60 Cu   -0.00042    0.00034    0.00083
 61 Cu    0.00181    0.00260    0.00054
 62 Cu   -0.00166    0.00194    0.00435
 63 Cu   -0.00711   -0.00253   -0.00111
 64 Cu   -0.00262    0.00068   -0.00039
 65 Cu    0.00012    0.00071   -0.00200
 66 Cu    0.00259   -0.00333   -0.00262
 67 Cu    0.00337    0.00031   -0.00150
 68 Cu   -0.00090    0.00116   -0.00062
 69 Cu   -0.00058    0.00649   -0.00016
 70 Cu   -0.00109    0.00008   -0.00088
 71 Cu    0.00119    0.00198   -0.00270
 72 Cu   -0.00065    0.00232   -0.00066
 73 Cu   -0.00123    0.00107   -0.00269
 74 Cu   -0.00218   -0.00016   -0.00283
 75 Cu   -0.00373    0.00196    0.00147
 76 Cu   -0.00186   -0.00270   -0.00112
 77 Cu   -0.00333    0.00140   -0.00028
 78 Cu    0.00231   -0.00231    0.00184
 79 Cu   -0.00164    0.00019    0.00115
 80 Cu   -0.00395    0.00022   -0.00066
 81 Cu   -0.00240   -0.00174    0.00163
 82 Cu   -0.00094    0.00175   -0.00225
 83 Cu    0.00025   -0.00023    0.00280
 84 Cu    0.00532    0.00057    0.00166
 85 Cu    0.00476    0.00126    0.00015
 86 Cu    0.00092    0.00140   -0.00262
 87 Cu   -0.00135    0.00095   -0.00161
 88 Cu   -0.00107    0.00474    0.00137
 89 Cu   -0.00295   -0.00102    0.00904
 90 Cu   -0.00121    0.00041    0.00664
 91 Cu   -0.00024    0.00353   -0.00276
 92 Cu    0.00809   -0.00382    0.00277
 93 Cu    0.00033   -0.00039    0.01280
 94 Cu   -0.01014   -0.00249    0.00991
 95 Cu    0.00136    0.00090    0.01251
 96 Cl   -0.00525   -0.01381    0.01932
 97 Cl   -0.00371    0.00840    0.01057
 98 Cl   -0.01930    0.01124    0.02589
 99 Cl    0.00587    0.01427   -0.01476
100 Cl    0.02770   -0.04302   -0.03150
101 Cl    0.00990   -0.00161   -0.02537

System changes: positions 

Initializing position-dependent things.

Density initialized from wave functions
      .----------------------------.  
     /|                            |  
    / |                            |  
   /  |                            |  
  /   |                            |  
 *    |                            |  
 |    |                            |  
 |    |                            |  
 |    |                            |  
 |    |                            |  
 |    |                            |  
 |    |                            |  
 |    |           Cl               |  
 |    |                           Cu  
 |    |Cl     Cu             Cu    |  
 |    | Cu       Cu   Clu       Cu |  
 |    |     Cu   Cu       Cu    Cu |  
 |    Cu   Cu       Cu    Cu       |  
 |    Cu   Cu  Cu   Cu    Cu       |  
 |   Cu  Cu    Cu   Cu Cu    Cu    |  
 |    |  Cu   Cu       Cu    Cu    |  
 | Cu |  Cu   Cu  Cu   Cu    Cu    |  
 | Cu | Cu  Cu   Cu    Cu Cu       |  
 |    |     Cu   Cu       Cu    Cu |  
 |    Cu   Cu    Cu  Cu   Cu    Cu |  
 |    Cu   Cu  Cu   Cu    Cu Cu    |  
 |   Cu        Cu   Cu       Cu    |  
 |    |  Cu   Cu       Cu    Cu    |  
 | Cu |  Cu   Cu  Cu   Cu    Cu    |  
 | Cu | Cu  Cu   Cu    Cu Cu       |  
 |    |     Cu   Cu       Cu    Cu |  
 |    Cu  CCu        Cu   Cu       |  
 |    Cu       Cu   Cu       Cu    |  
 |    |         Cl                 |  
 |    |  Cu             Cu         |  
 |    |                            |  
 |    |                            |  
 |    |                            |  
 |    |                            |  
 |    |                            |  
 |    |                            |  
 |    .----------------------------.  
 |   /                            /   
 |  /                            /    
 | /                            /     
 |/                            /      
 *----------------------------*       

Positions:
   0 Cu     3.193919    0.102623   10.057270    ( 0.0000,  0.0000,  0.0000)
   1 Cu     1.400870    1.920462   10.688422    ( 0.0000,  0.0000,  0.0000)
   2 Cu     7.227910    1.846237   10.596364    ( 0.0000,  0.0000,  0.0000)
   3 Cu     9.068343    0.057683   10.030223    ( 0.0000,  0.0000,  0.0000)
   4 Cu    11.374359    0.057823   11.228290    ( 0.0000,  0.0000,  0.0000)
   5 Cu     9.663117    1.890301   11.802380    ( 0.0000,  0.0000,  0.0000)
   6 Cu     3.798727    1.863329   11.755600    ( 0.0000,  0.0000,  0.0000)
   7 Cu     5.514235    0.014834   11.207406    ( 0.0000,  0.0000,  0.0000)
   8 Cu     7.885687    0.038845   12.331345    ( 0.0000,  0.0000,  0.0000)
   9 Cu     6.135340    1.908413   12.892818    ( 0.0000,  0.0000,  0.0000)
  10 Cu     0.266505    1.878544   12.969472    ( 0.0000,  0.0000,  0.0000)
  11 Cu     2.025801    0.025962   12.356499    ( 0.0000,  0.0000,  0.0000)
  12 Cu     4.365231    0.031011   13.526374    ( 0.0000,  0.0000,  0.0000)
  13 Cu     2.618134    1.897945   14.110029    ( 0.0000,  0.0000,  0.0000)
  14 Cu     8.467885    1.881315   14.112259    ( 0.0000,  0.0000,  0.0000)
  15 Cu    10.206783    0.006691   13.522176    ( 0.0000,  0.0000,  0.0000)
  16 Cu     0.872443    0.027147   14.693922    ( 0.0000,  0.0000,  0.0000)
  17 Cu    10.811381    1.878055   15.280395    ( 0.0000,  0.0000,  0.0000)
  18 Cu     4.972938    1.880476   15.250840    ( 0.0000,  0.0000,  0.0000)
  19 Cu     6.721049    0.027073   14.668448    ( 0.0000,  0.0000,  0.0000)
  20 Cu     9.058778    0.028266   15.861393    ( 0.0000,  0.0000,  0.0000)
  21 Cu     7.302995    1.874679   16.443297    ( 0.0000,  0.0000,  0.0000)
  22 Cu     1.457959    1.877314   16.457146    ( 0.0000,  0.0000,  0.0000)
  23 Cu     3.211398    0.029065   15.855521    ( 0.0000,  0.0000,  0.0000)
  24 Cu     5.555550    0.025507   17.021483    ( 0.0000,  0.0000,  0.0000)
  25 Cu     3.798490    1.877904   17.612075    ( 0.0000,  0.0000,  0.0000)
  26 Cu     9.641673    1.877874   17.628038    ( 0.0000,  0.0000,  0.0000)
  27 Cu    11.404563    0.021846   17.024132    ( 0.0000,  0.0000,  0.0000)
  28 Cu     2.047869    0.026928   18.203544    ( 0.0000,  0.0000,  0.0000)
  29 Cu     0.280085    1.876218   18.779140    ( 0.0000,  0.0000,  0.0000)
  30 Cu     6.139501    1.876524   18.787284    ( 0.0000,  0.0000,  0.0000)
  31 Cu     7.890507    0.028267   18.201816    ( 0.0000,  0.0000,  0.0000)
  32 Cu    10.238665    0.031989   19.361169    ( 0.0000,  0.0000,  0.0000)
  33 Cu     8.479441    1.876366   19.992278    ( 0.0000,  0.0000,  0.0000)
  34 Cu     2.633384    1.876249   19.988457    ( 0.0000,  0.0000,  0.0000)
  35 Cu     4.395257    0.044887   19.362454    ( 0.0000,  0.0000,  0.0000)
  36 Cu     6.743125    0.037523   20.541739    ( 0.0000,  0.0000,  0.0000)
  37 Cu     4.997205    1.894580   21.185658    ( 0.0000,  0.0000,  0.0000)
  38 Cu    10.839676    1.875050   21.154785    ( 0.0000,  0.0000,  0.0000)
  39 Cu     0.892258    0.052666   20.531206    ( 0.0000,  0.0000,  0.0000)
  40 Cu     3.207284    0.014375   21.700936    ( 0.0000,  0.0000,  0.0000)
  41 Cu     1.420876    1.879587   22.405272    ( 0.0000,  0.0000,  0.0000)
  42 Cu     7.297639    1.860681   22.411491    ( 0.0000,  0.0000,  0.0000)
  43 Cu     9.065196    0.022676   21.711146    ( 0.0000,  0.0000,  0.0000)
  44 Cu    11.415638   -0.021851   22.816197    ( 0.0000,  0.0000,  0.0000)
  45 Cu     9.757278    1.873918   23.432522    ( 0.0000,  0.0000,  0.0000)
  46 Cu     3.857770    1.832668   23.424282    ( 0.0000,  0.0000,  0.0000)
  47 Cu     5.570767    0.002131   22.822944    ( 0.0000,  0.0000,  0.0000)
  48 Cu     3.133795    3.678238   10.031159    ( 0.0000,  0.0000,  0.0000)
  49 Cu     1.356077    5.541888   10.547482    ( 0.0000,  0.0000,  0.0000)
  50 Cu     7.335080    5.627433   10.648153    ( 0.0000,  0.0000,  0.0000)
  51 Cu     9.047487    3.716649   10.036295    ( 0.0000,  0.0000,  0.0000)
  52 Cu    11.382795    3.720181   11.206672    ( 0.0000,  0.0000,  0.0000)
  53 Cu     9.670732    5.582197   11.650398    ( 0.0000,  0.0000,  0.0000)
  54 Cu     3.772061    5.601683   11.750456    ( 0.0000,  0.0000,  0.0000)
  55 Cu     5.560180    3.774338   11.087133    ( 0.0000,  0.0000,  0.0000)
  56 Cu     7.881526    3.733598   12.320351    ( 0.0000,  0.0000,  0.0000)
  57 Cu     6.115373    5.562585   12.923490    ( 0.0000,  0.0000,  0.0000)
  58 Cu     0.278346    5.584311   12.923175    ( 0.0000,  0.0000,  0.0000)
  59 Cu     2.028716    3.764482   12.305927    ( 0.0000,  0.0000,  0.0000)
  60 Cu     4.376781    3.728928   13.477096    ( 0.0000,  0.0000,  0.0000)
  61 Cu     2.619760    5.571980   14.110106    ( 0.0000,  0.0000,  0.0000)
  62 Cu     8.468323    5.579737   14.102885    ( 0.0000,  0.0000,  0.0000)
  63 Cu    10.209837    3.754188   13.520781    ( 0.0000,  0.0000,  0.0000)
  64 Cu     0.870895    3.729599   14.683153    ( 0.0000,  0.0000,  0.0000)
  65 Cu    10.818862    5.580074   15.267645    ( 0.0000,  0.0000,  0.0000)
  66 Cu     4.967060    5.575515   15.266849    ( 0.0000,  0.0000,  0.0000)
  67 Cu     6.725197    3.733307   14.683761    ( 0.0000,  0.0000,  0.0000)
  68 Cu     9.060274    3.726821   15.862011    ( 0.0000,  0.0000,  0.0000)
  69 Cu     7.306226    5.579071   16.448386    ( 0.0000,  0.0000,  0.0000)
  70 Cu     1.458150    5.575717   16.452253    ( 0.0000,  0.0000,  0.0000)
  71 Cu     3.216956    3.731226   15.851219    ( 0.0000,  0.0000,  0.0000)
  72 Cu     5.553022    3.722869   17.016716    ( 0.0000,  0.0000,  0.0000)
  73 Cu     3.805245    5.578907   17.618970    ( 0.0000,  0.0000,  0.0000)
  74 Cu     9.648605    5.574679   17.611312    ( 0.0000,  0.0000,  0.0000)
  75 Cu    11.406815    3.730604   17.020995    ( 0.0000,  0.0000,  0.0000)
  76 Cu     2.047274    3.722251   18.198374    ( 0.0000,  0.0000,  0.0000)
  77 Cu     0.287918    5.575482   18.795162    ( 0.0000,  0.0000,  0.0000)
  78 Cu     6.139638    5.567634   18.789671    ( 0.0000,  0.0000,  0.0000)
  79 Cu     7.887853    3.719324   18.207327    ( 0.0000,  0.0000,  0.0000)
  80 Cu    10.240840    3.716744   19.362566    ( 0.0000,  0.0000,  0.0000)
  81 Cu     8.493879    5.567296   19.938435    ( 0.0000,  0.0000,  0.0000)
  82 Cu     2.643583    5.572096   19.944651    ( 0.0000,  0.0000,  0.0000)
  83 Cu     4.395013    3.709770   19.362905    ( 0.0000,  0.0000,  0.0000)
  84 Cu     6.733579    3.697159   20.576866    ( 0.0000,  0.0000,  0.0000)
  85 Cu     4.979300    5.567355   21.107419    ( 0.0000,  0.0000,  0.0000)
  86 Cu    10.843053    5.573909   21.108914    ( 0.0000,  0.0000,  0.0000)
  87 Cu     0.897707    3.697632   20.535234    ( 0.0000,  0.0000,  0.0000)
  88 Cu     3.217891    3.730131   21.716408    ( 0.0000,  0.0000,  0.0000)
  89 Cu     1.475594    5.574763   22.252605    ( 0.0000,  0.0000,  0.0000)
  90 Cu     7.349881    5.579786   22.238763    ( 0.0000,  0.0000,  0.0000)
  91 Cu     9.057858    3.717432   21.723198    ( 0.0000,  0.0000,  0.0000)
  92 Cu    11.407459    3.767009   22.816928    ( 0.0000,  0.0000,  0.0000)
  93 Cu     9.684632    5.571881   23.354273    ( 0.0000,  0.0000,  0.0000)
  94 Cu     3.737318    5.624068   23.401946    ( 0.0000,  0.0000,  0.0000)
  95 Cu     5.589324    3.734205   22.919932    ( 0.0000,  0.0000,  0.0000)
  96 Cl     5.464217    5.139766   24.838423    ( 0.0000,  0.0000,  0.0000)
  97 Cl     2.026267    1.847150   24.746307    ( 0.0000,  0.0000,  0.0000)
  98 Cl     7.912034    1.678962   24.737342    ( 0.0000,  0.0000,  0.0000)
  99 Cl     5.002636    3.788099    8.753284    ( 0.0000,  0.0000,  0.0000)
 100 Cl     1.617150   -0.629000    8.559446    ( 0.0000,  0.0000,  0.0000)
 101 Cl    -3.104996    1.892005    8.541441    ( 0.0000,  0.0000,  0.0000)

Unit cell:
           periodic     x           y           z      points  spacing
  1. axis:    yes   11.703590    0.000000    0.000000    70     0.1672
  2. axis:    yes    0.000000    7.402000    0.000000    42     0.1762
  3. axis:    no     0.000000    0.000000   33.459128   192     0.1743

  Lengths:  11.703590   7.402000  33.459128
  Angles:   90.000000  90.000000  90.000000

Effective grid spacing dv^(1/3) = 0.1725

     iter     time        total  log10-change:
                         energy  eigst   dens
iter:   1 00:01:52 -7490.684269  -4.78
iter:   2 00:04:43 -7490.681464  -5.28  -3.59
iter:   3 00:07:36 -7490.681340c -5.99  -3.90
iter:   4 00:10:30 -7490.680307c -6.43  -3.81
iter:   5 00:13:23 -7490.680176c -6.19  -4.22c
iter:   6 00:16:17 -7490.680133c -6.81  -4.39c
iter:   7 00:19:11 -7490.680119c -7.53c -4.64c

Converged after 7 iterations.

Dipole moment: (22.132058, -17.928400, -0.054254) |e|*Ang

Energy contributions relative to reference atoms: (reference = -4397389.073122)

Kinetic:       +722.798833
Potential:     -800.560817
External:        +0.000000
XC:            -7411.113691
Entropy (-ST):   -0.963533
Local:           -1.322678
--------------------------
Free energy:   -7491.161885
Extrapolated:  -7490.680119

Showing only first 2 kpts
 Kpt  Band  Eigenvalues  Occupancy
  0   547      0.17251    0.76731
  0   548      0.25938    0.41409
  0   549      0.28555    0.33471
  0   550      0.33319    0.22193

  1   547     -0.11788    1.83815
  1   548     -0.06338    1.73634
  1   549     -0.03349    1.66009
  1   550      0.00346    1.54285


Fermi level: 0.12510

No gap

Forces in eV/Ang:
  0 Cu   -0.00303   -0.00329    0.00038
  1 Cu    0.00572   -0.00206    0.00381
  2 Cu    0.00035   -0.00213   -0.00087
  3 Cu    0.00024   -0.00211    0.00220
  4 Cu    0.00054   -0.00059   -0.00121
  5 Cu   -0.00436   -0.00059   -0.01021
  6 Cu   -0.00117    0.00135   -0.00476
  7 Cu    0.00097   -0.00045   -0.00256
  8 Cu   -0.00200   -0.00120   -0.00680
  9 Cu   -0.00185    0.00004   -0.00295
 10 Cu   -0.00151    0.00126   -0.00156
 11 Cu   -0.00180   -0.00026   -0.00773
 12 Cu   -0.00103    0.00054   -0.00160
 13 Cu   -0.00018    0.00141    0.00064
 14 Cu   -0.00194   -0.00052    0.00086
 15 Cu   -0.00206   -0.00051    0.00119
 16 Cu    0.00059    0.00023    0.00047
 17 Cu   -0.00164    0.00121    0.00208
 18 Cu    0.00154    0.00102    0.00037
 19 Cu    0.00092    0.00076    0.00168
 20 Cu    0.00063    0.00142    0.00100
 21 Cu    0.00025    0.00008    0.00162
 22 Cu   -0.00068    0.00086    0.00124
 23 Cu    0.00091    0.00068    0.00077
 24 Cu   -0.00064    0.00053    0.00110
 25 Cu   -0.00021    0.00076    0.00030
 26 Cu   -0.00058    0.00008    0.00127
 27 Cu   -0.00028    0.00088   -0.00116
 28 Cu    0.00001    0.00053   -0.00043
 29 Cu   -0.00077    0.00051   -0.00119
 30 Cu   -0.00326    0.00056    0.00063
 31 Cu   -0.00119    0.00079   -0.00009
 32 Cu    0.00081   -0.00105   -0.00136
 33 Cu    0.00152   -0.00036    0.00222
 34 Cu    0.00350    0.00022    0.00130
 35 Cu   -0.00050    0.00019    0.00242
 36 Cu   -0.00272    0.00009    0.00464
 37 Cu   -0.00078   -0.00094    0.00272
 38 Cu   -0.00012   -0.00032    0.00104
 39 Cu    0.00299    0.00022   -0.00026
 40 Cu    0.00231   -0.00039    0.00447
 41 Cu    0.00023    0.00011   -0.00173
 42 Cu    0.00027    0.00020    0.00564
 43 Cu    0.00073    0.00080    0.00821
 44 Cu   -0.00582    0.00304    0.00183
 45 Cu   -0.00908   -0.00204    0.00540
 46 Cu    0.00772   -0.00356   -0.00105
 47 Cu    0.00093    0.00209    0.00331
 48 Cu   -0.00257    0.00067    0.00207
 49 Cu    0.00018   -0.00242   -0.00253
 50 Cu    0.00231   -0.00176   -0.00418
 51 Cu   -0.00338   -0.00050    0.00198
 52 Cu   -0.00073    0.00017   -0.00442
 53 Cu   -0.00078   -0.00062   -0.00394
 54 Cu   -0.00167   -0.00143   -0.00434
 55 Cu    0.00156   -0.00155   -0.00020
 56 Cu   -0.00157   -0.00092   -0.00685
 57 Cu   -0.00104   -0.00064   -0.00235
 58 Cu    0.00002   -0.00144   -0.00350
 59 Cu   -0.00119   -0.00042   -0.00329
 60 Cu   -0.00148   -0.00007   -0.00178
 61 Cu   -0.00061   -0.00103   -0.00018
 62 Cu   -0.00038    0.00025    0.00139
 63 Cu   -0.00239    0.00055    0.00019
 64 Cu   -0.00021    0.00061    0.00161
 65 Cu   -0.00022   -0.00016    0.00010
 66 Cu    0.00052    0.00018    0.00160
 67 Cu    0.00241   -0.00042    0.00001
 68 Cu    0.00062   -0.00065    0.00090
 69 Cu   -0.00032    0.00049    0.00196
 70 Cu   -0.00119    0.00003    0.00103
 71 Cu    0.00015   -0.00018   -0.00044
 72 Cu   -0.00006    0.00033   -0.00031
 73 Cu   -0.00120   -0.00034    0.00111
 74 Cu   -0.00073    0.00062   -0.00088
 75 Cu   -0.00113   -0.00021    0.00026
 76 Cu   -0.00022    0.00046   -0.00057
 77 Cu   -0.00147    0.00042    0.00009
 78 Cu   -0.00334    0.00015    0.00066
 79 Cu   -0.00103   -0.00012   -0.00109
 80 Cu   -0.00028    0.00114   -0.00122
 81 Cu    0.00163    0.00043   -0.00146
 82 Cu    0.00196    0.00056    0.00025
 83 Cu   -0.00069    0.00050    0.00323
 84 Cu   -0.00092    0.00023    0.00244
 85 Cu    0.00163    0.00145    0.00461
 86 Cu    0.00135   -0.00085    0.00256
 87 Cu    0.00169    0.00067   -0.00175
 88 Cu    0.00006    0.00059    0.00429
 89 Cu    0.00032    0.00016   -0.00066
 90 Cu   -0.00197    0.00314    0.00730
 91 Cu    0.00143   -0.00173    0.00856
 92 Cu   -0.00282   -0.00351    0.00191
 93 Cu    0.00002   -0.00060    0.00054
 94 Cu    0.00252    0.00027   -0.00249
 95 Cu    0.00091   -0.00311    0.00463
 96 Cl   -0.00743   -0.02074   -0.00147
 97 Cl    0.00947    0.01027   -0.00293
 98 Cl   -0.00676    0.01242    0.00664
 99 Cl   -0.00460    0.01252   -0.00030
100 Cl    0.03584   -0.05317   -0.01188
101 Cl    0.01287   -0.00186   -0.00617

System changes: positions 

Initializing position-dependent things.

Density initialized from wave functions
      .----------------------------.  
     /|                            |  
    / |                            |  
   /  |                            |  
  /   |                            |  
 *    |                            |  
 |    |                            |  
 |    |                            |  
 |    |                            |  
 |    |                            |  
 |    |                            |  
 |    |                            |  
 |    |           Cl               |  
 |    |                           Cu  
 |    |Cl     Cu             Cu    |  
 |    | Cu       Cu   Clu       Cu |  
 |    |     Cu   Cu       Cu    Cu |  
 |    Cu   Cu       Cu    Cu       |  
 |    Cu   Cu  Cu   Cu    Cu       |  
 |   Cu  Cu    Cu   Cu Cu    Cu    |  
 |    |  Cu   Cu       Cu    Cu    |  
 | Cu |  Cu   Cu  Cu   Cu    Cu    |  
 | Cu | Cu  Cu   Cu    Cu Cu       |  
 |    |     Cu   Cu       Cu    Cu |  
 |    Cu   Cu    Cu  Cu   Cu    Cu |  
 |    Cu   Cu  Cu   Cu    Cu Cu    |  
 |   Cu        Cu   Cu       Cu    |  
 |    |  Cu   Cu       Cu    Cu    |  
 | Cu |  Cu   Cu  Cu   Cu    Cu    |  
 | Cu | Cu  Cu   Cu    Cu Cu       |  
 |    |     Cu   Cu       Cu    Cu |  
 |    Cu  CCu        Cu   Cu       |  
 |    Cu       Cu   Cu       Cu    |  
 |    |         Cl                 |  
 |    |  Cu             Cu         |  
 |    |                            |  
 |    |                            |  
 |    |                            |  
 |    |                            |  
 |    |                            |  
 |    |                            |  
 |    .----------------------------.  
 |   /                            /   
 |  /                            /    
 | /                            /     
 |/                            /      
 *----------------------------*       

Positions:
   0 Cu     3.194639    0.101850   10.056748    ( 0.0000,  0.0000,  0.0000)
   1 Cu     1.401454    1.919451   10.689442    ( 0.0000,  0.0000,  0.0000)
   2 Cu     7.228043    1.844756   10.595762    ( 0.0000,  0.0000,  0.0000)
   3 Cu     9.069095    0.057267   10.028549    ( 0.0000,  0.0000,  0.0000)
   4 Cu    11.374074    0.058016   11.228120    ( 0.0000,  0.0000,  0.0000)
   5 Cu     9.662131    1.890028   11.800692    ( 0.0000,  0.0000,  0.0000)
   6 Cu     3.798106    1.863182   11.755414    ( 0.0000,  0.0000,  0.0000)
   7 Cu     5.513880    0.013997   11.206210    ( 0.0000,  0.0000,  0.0000)
   8 Cu     7.884704    0.038387   12.330718    ( 0.0000,  0.0000,  0.0000)
   9 Cu     6.134736    1.908354   12.892235    ( 0.0000,  0.0000,  0.0000)
  10 Cu     0.265083    1.879026   12.969314    ( 0.0000,  0.0000,  0.0000)
  11 Cu     2.025279    0.026172   12.355599    ( 0.0000,  0.0000,  0.0000)
  12 Cu     4.365089    0.031383   13.526983    ( 0.0000,  0.0000,  0.0000)
  13 Cu     2.617972    1.898427   14.109768    ( 0.0000,  0.0000,  0.0000)
  14 Cu     8.467082    1.881096   14.112134    ( 0.0000,  0.0000,  0.0000)
  15 Cu    10.205995    0.006531   13.522221    ( 0.0000,  0.0000,  0.0000)
  16 Cu     0.872400    0.027042   14.693367    ( 0.0000,  0.0000,  0.0000)
  17 Cu    10.810743    1.878049   15.280772    ( 0.0000,  0.0000,  0.0000)
  18 Cu     4.974200    1.880469   15.250661    ( 0.0000,  0.0000,  0.0000)
  19 Cu     6.721170    0.027121   14.668510    ( 0.0000,  0.0000,  0.0000)
  20 Cu     9.058980    0.028480   15.861262    ( 0.0000,  0.0000,  0.0000)
  21 Cu     7.303364    1.875078   16.443370    ( 0.0000,  0.0000,  0.0000)
  22 Cu     1.457865    1.877654   16.456609    ( 0.0000,  0.0000,  0.0000)
  23 Cu     3.211617    0.029575   15.855309    ( 0.0000,  0.0000,  0.0000)
  24 Cu     5.555431    0.025418   17.022029    ( 0.0000,  0.0000,  0.0000)
  25 Cu     3.798623    1.878383   17.611696    ( 0.0000,  0.0000,  0.0000)
  26 Cu     9.641108    1.877908   17.628838    ( 0.0000,  0.0000,  0.0000)
  27 Cu    11.404532    0.022810   17.023635    ( 0.0000,  0.0000,  0.0000)
  28 Cu     2.047471    0.026824   18.203162    ( 0.0000,  0.0000,  0.0000)
  29 Cu     0.280177    1.876379   18.779266    ( 0.0000,  0.0000,  0.0000)
  30 Cu     6.138740    1.876787   18.787712    ( 0.0000,  0.0000,  0.0000)
  31 Cu     7.890154    0.028335   18.201773    ( 0.0000,  0.0000,  0.0000)
  32 Cu    10.238894    0.031759   19.360893    ( 0.0000,  0.0000,  0.0000)
  33 Cu     8.479632    1.875676   19.993231    ( 0.0000,  0.0000,  0.0000)
  34 Cu     2.634287    1.876206   19.988702    ( 0.0000,  0.0000,  0.0000)
  35 Cu     4.395262    0.044783   19.363035    ( 0.0000,  0.0000,  0.0000)
  36 Cu     6.743360    0.038350   20.542447    ( 0.0000,  0.0000,  0.0000)
  37 Cu     4.997458    1.894756   21.186913    ( 0.0000,  0.0000,  0.0000)
  38 Cu    10.839782    1.874853   21.154490    ( 0.0000,  0.0000,  0.0000)
  39 Cu     0.893206    0.053366   20.531788    ( 0.0000,  0.0000,  0.0000)
  40 Cu     3.207580    0.014289   21.702250    ( 0.0000,  0.0000,  0.0000)
  41 Cu     1.421854    1.879643   22.405722    ( 0.0000,  0.0000,  0.0000)
  42 Cu     7.298139    1.861785   22.413068    ( 0.0000,  0.0000,  0.0000)
  43 Cu     9.065600    0.021873   21.711725    ( 0.0000,  0.0000,  0.0000)
  44 Cu    11.414674   -0.021537   22.816901    ( 0.0000,  0.0000,  0.0000)
  45 Cu     9.757036    1.873348   23.433994    ( 0.0000,  0.0000,  0.0000)
  46 Cu     3.858837    1.831457   23.426696    ( 0.0000,  0.0000,  0.0000)
  47 Cu     5.570705    0.002004   22.824656    ( 0.0000,  0.0000,  0.0000)
  48 Cu     3.134337    3.678107   10.029822    ( 0.0000,  0.0000,  0.0000)
  49 Cu     1.355090    5.541337   10.545678    ( 0.0000,  0.0000,  0.0000)
  50 Cu     7.335018    5.626568   10.646740    ( 0.0000,  0.0000,  0.0000)
  51 Cu     9.047358    3.716240   10.034546    ( 0.0000,  0.0000,  0.0000)
  52 Cu    11.382186    3.719495   11.204899    ( 0.0000,  0.0000,  0.0000)
  53 Cu     9.670671    5.582312   11.650189    ( 0.0000,  0.0000,  0.0000)
  54 Cu     3.771574    5.601983   11.750935    ( 0.0000,  0.0000,  0.0000)
  55 Cu     5.560306    3.773873   11.087359    ( 0.0000,  0.0000,  0.0000)
  56 Cu     7.881208    3.733165   12.318989    ( 0.0000,  0.0000,  0.0000)
  57 Cu     6.115437    5.562432   12.924049    ( 0.0000,  0.0000,  0.0000)
  58 Cu     0.278390    5.584189   12.923011    ( 0.0000,  0.0000,  0.0000)
  59 Cu     2.028004    3.764163   12.305401    ( 0.0000,  0.0000,  0.0000)
  60 Cu     4.376440    3.728972   13.476904    ( 0.0000,  0.0000,  0.0000)
  61 Cu     2.619944    5.572215   14.110161    ( 0.0000,  0.0000,  0.0000)
  62 Cu     8.467982    5.580103   14.103854    ( 0.0000,  0.0000,  0.0000)
  63 Cu    10.208228    3.753875   13.520635    ( 0.0000,  0.0000,  0.0000)
  64 Cu     0.870426    3.729824   14.683386    ( 0.0000,  0.0000,  0.0000)
  65 Cu    10.818843    5.580160   15.267336    ( 0.0000,  0.0000,  0.0000)
  66 Cu     4.967579    5.575004   15.266716    ( 0.0000,  0.0000,  0.0000)
  67 Cu     6.726194    3.733279   14.683517    ( 0.0000,  0.0000,  0.0000)
  68 Cu     9.060242    3.726892   15.862075    ( 0.0000,  0.0000,  0.0000)
  69 Cu     7.306072    5.580226   16.448721    ( 0.0000,  0.0000,  0.0000)
  70 Cu     1.457751    5.575737   16.452299    ( 0.0000,  0.0000,  0.0000)
  71 Cu     3.217178    3.731518   15.850696    ( 0.0000,  0.0000,  0.0000)
  72 Cu     5.552905    3.723312   17.016552    ( 0.0000,  0.0000,  0.0000)
  73 Cu     3.804821    5.579020   17.618734    ( 0.0000,  0.0000,  0.0000)
  74 Cu     9.648113    5.574768   17.610685    ( 0.0000,  0.0000,  0.0000)
  75 Cu    11.405994    3.730885   17.021285    ( 0.0000,  0.0000,  0.0000)
  76 Cu     2.046930    3.721895   18.198087    ( 0.0000,  0.0000,  0.0000)
  77 Cu     0.287102    5.575790   18.795133    ( 0.0000,  0.0000,  0.0000)
  78 Cu     6.139398    5.567284   18.790096    ( 0.0000,  0.0000,  0.0000)
  79 Cu     7.887394    3.719331   18.207314    ( 0.0000,  0.0000,  0.0000)
  80 Cu    10.240141    3.716992   19.362234    ( 0.0000,  0.0000,  0.0000)
  81 Cu     8.493788    5.567089   19.938431    ( 0.0000,  0.0000,  0.0000)
  82 Cu     2.643793    5.572485   19.944329    ( 0.0000,  0.0000,  0.0000)
  83 Cu     4.394926    3.709825   19.363962    ( 0.0000,  0.0000,  0.0000)
  84 Cu     6.734281    3.697295   20.577589    ( 0.0000,  0.0000,  0.0000)
  85 Cu     4.980381    5.567828   21.108297    ( 0.0000,  0.0000,  0.0000)
  86 Cu    10.843455    5.573982   21.108958    ( 0.0000,  0.0000,  0.0000)
  87 Cu     0.897799    3.697911   20.534646    ( 0.0000,  0.0000,  0.0000)
  88 Cu     3.217727    3.731015   21.717424    ( 0.0000,  0.0000,  0.0000)
  89 Cu     1.475171    5.574625   22.253964    ( 0.0000,  0.0000,  0.0000)
  90 Cu     7.349319    5.580435   22.241202    ( 0.0000,  0.0000,  0.0000)
  91 Cu     9.058083    3.717691   21.724327    ( 0.0000,  0.0000,  0.0000)
  92 Cu    11.408264    3.765733   22.817736    ( 0.0000,  0.0000,  0.0000)
  93 Cu     9.684690    5.571706   23.356470    ( 0.0000,  0.0000,  0.0000)
  94 Cu     3.736122    5.623709   23.403111    ( 0.0000,  0.0000,  0.0000)
  95 Cu     5.589714    3.733778   22.922838    ( 0.0000,  0.0000,  0.0000)
  96 Cl     5.461983    5.133669   24.841317    ( 0.0000,  0.0000,  0.0000)
  97 Cl     2.027409    1.850426   24.747498    ( 0.0000,  0.0000,  0.0000)
  98 Cl     7.907620    1.683101   24.742812    ( 0.0000,  0.0000,  0.0000)
  99 Cl     5.002747    3.792753    8.750809    ( 0.0000,  0.0000,  0.0000)
 100 Cl     1.628316   -0.645880    8.552088    ( 0.0000,  0.0000,  0.0000)
 101 Cl    -3.100995    1.891399    8.536142    ( 0.0000,  0.0000,  0.0000)

Unit cell:
           periodic     x           y           z      points  spacing
  1. axis:    yes   11.703590    0.000000    0.000000    70     0.1672
  2. axis:    yes    0.000000    7.402000    0.000000    42     0.1762
  3. axis:    no     0.000000    0.000000   33.459128   192     0.1743

  Lengths:  11.703590   7.402000  33.459128
  Angles:   90.000000  90.000000  90.000000

Effective grid spacing dv^(1/3) = 0.1725

     iter     time        total  log10-change:
                         energy  eigst   dens
iter:   1 00:23:43 -7490.691890  -4.35
iter:   2 00:26:35 -7490.716239  -4.58  -3.36
iter:   3 00:29:28 -7490.682116c -5.12  -3.11
iter:   4 00:32:21 -7490.681612c -5.66  -3.84
iter:   5 00:35:13 -7490.681448c -6.17  -4.09c
iter:   6 00:38:06 -7490.681384c -6.69  -4.29c
iter:   7 00:40:58 -7490.681368c -7.01  -4.43c
iter:   8 00:43:50 -7490.681395c -7.16  -4.54c
iter:   9 00:46:43 -7490.681376c -7.22  -4.52c
iter:  10 00:49:35 -7490.681348c -7.68c -4.66c

Converged after 10 iterations.

Dipole moment: (22.192162, -18.280441, -0.049165) |e|*Ang

Energy contributions relative to reference atoms: (reference = -4397389.073122)

Kinetic:       +722.260423
Potential:     -800.146133
External:        +0.000000
XC:            -7410.995034
Entropy (-ST):   -0.963934
Local:           -1.318637
--------------------------
Free energy:   -7491.163315
Extrapolated:  -7490.681348

Showing only first 2 kpts
 Kpt  Band  Eigenvalues  Occupancy
  0   547      0.16988    0.76601
  0   548      0.25671    0.41333
  0   549      0.28319    0.33320
  0   550      0.33010    0.22230

  1   547     -0.12026    1.83737
  1   548     -0.06646    1.73673
  1   549     -0.03579    1.65837
  1   550      0.00095    1.54148


Fermi level: 0.12220

No gap

Forces in eV/Ang:
  0 Cu   -0.01874   -0.00411   -0.00860
  1 Cu    0.00271   -0.00087    0.00117
  2 Cu    0.00590   -0.00087   -0.00813
  3 Cu   -0.00252    0.00421    0.00042
  4 Cu    0.00237   -0.00163   -0.00117
  5 Cu   -0.00270   -0.00136   -0.00206
  6 Cu    0.00085    0.00004   -0.00498
  7 Cu    0.00200   -0.00096    0.00694
  8 Cu    0.00098   -0.00436   -0.00713
  9 Cu   -0.00185   -0.00237   -0.00329
 10 Cu   -0.00269    0.00108   -0.00044
 11 Cu   -0.00016   -0.00244   -0.00399
 12 Cu    0.00085   -0.00026   -0.00577
 13 Cu   -0.00064   -0.00110    0.00088
 14 Cu    0.00095   -0.00177   -0.00276
 15 Cu   -0.00139    0.00228   -0.00338
 16 Cu    0.00063    0.00278    0.00014
 17 Cu   -0.00036    0.00115    0.00035
 18 Cu   -0.00231    0.00164    0.00098
 19 Cu   -0.00177    0.00097    0.00138
 20 Cu   -0.00086    0.00204    0.00434
 21 Cu   -0.00148   -0.00105    0.00328
 22 Cu   -0.00068    0.00037    0.00152
 23 Cu    0.00052   -0.00033    0.00122
 24 Cu   -0.00079    0.00107   -0.00209
 25 Cu   -0.00138   -0.00037   -0.00182
 26 Cu   -0.00002   -0.00043   -0.00003
 27 Cu   -0.00101   -0.00169    0.00068
 28 Cu    0.00029    0.00271   -0.00283
 29 Cu   -0.00187    0.00016   -0.00222
 30 Cu    0.00217    0.00052   -0.00135
 31 Cu    0.00017    0.00121    0.00045
 32 Cu   -0.00052   -0.00053   -0.00223
 33 Cu   -0.00075    0.00265   -0.00180
 34 Cu    0.00005    0.00104    0.00199
 35 Cu    0.00006    0.00091   -0.00063
 36 Cu   -0.00104   -0.00293    0.00559
 37 Cu   -0.00079    0.00215    0.00889
 38 Cu    0.00027    0.00148    0.00601
 39 Cu   -0.00076   -0.00185    0.00220
 40 Cu    0.00223   -0.00089    0.00477
 41 Cu    0.00253   -0.00168    0.00037
 42 Cu    0.00217   -0.00472    0.01094
 43 Cu   -0.00049   -0.00161    0.00381
 44 Cu    0.00339   -0.00098   -0.00148
 45 Cu   -0.02698   -0.00349    0.01491
 46 Cu    0.00049   -0.00229   -0.00880
 47 Cu    0.00083    0.00112   -0.00283
 48 Cu    0.00431   -0.00338    0.00546
 49 Cu   -0.00338    0.00146    0.00235
 50 Cu    0.00190    0.00163    0.00511
 51 Cu   -0.00324   -0.00726   -0.00114
 52 Cu   -0.00032    0.00147    0.00353
 53 Cu   -0.00373   -0.00254   -0.00368
 54 Cu    0.00025   -0.00418    0.00075
 55 Cu   -0.00453   -0.00039   -0.00783
 56 Cu    0.00079    0.00258   -0.00421
 57 Cu   -0.00115    0.00194   -0.00738
 58 Cu   -0.00140   -0.00431   -0.00972
 59 Cu   -0.00052    0.00352   -0.00447
 60 Cu    0.00033   -0.00096   -0.00177
 61 Cu   -0.00071    0.00044   -0.00043
 62 Cu   -0.00081   -0.00092   -0.00437
 63 Cu    0.00197    0.00028   -0.00571
 64 Cu   -0.00080   -0.00097   -0.00032
 65 Cu   -0.00032    0.00023    0.00188
 66 Cu   -0.00086    0.00246    0.00272
 67 Cu   -0.00225    0.00065    0.00126
 68 Cu   -0.00156   -0.00008    0.00340
 69 Cu   -0.00103   -0.00333    0.00163
 70 Cu   -0.00029    0.00079   -0.00015
 71 Cu   -0.00012   -0.00064    0.00070
 72 Cu    0.00116    0.00021   -0.00044
 73 Cu    0.00057   -0.00079   -0.00257
 74 Cu   -0.00013    0.00259   -0.00015
 75 Cu    0.00077   -0.00114   -0.00002
 76 Cu    0.00016    0.00142   -0.00347
 77 Cu    0.00088    0.00132   -0.00322
 78 Cu   -0.00020    0.00149   -0.00065
 79 Cu   -0.00060   -0.00033   -0.00126
 80 Cu   -0.00067   -0.00077    0.00111
 81 Cu   -0.00074    0.00136    0.00265
 82 Cu   -0.00070   -0.00002    0.00401
 83 Cu    0.00045    0.00138    0.00025
 84 Cu   -0.00242    0.00069    0.00555
 85 Cu   -0.00072   -0.00113    0.00783
 86 Cu   -0.00081   -0.00321    0.00995
 87 Cu    0.00003    0.00012    0.00343
 88 Cu    0.00311   -0.00353    0.00261
 89 Cu   -0.00419    0.00258   -0.00123
 90 Cu    0.00265    0.00124   -0.00371
 91 Cu    0.00551    0.00368    0.00217
 92 Cu   -0.00253    0.00367   -0.00329
 93 Cu    0.00692   -0.00222   -0.00678
 94 Cu    0.01035    0.00078    0.00175
 95 Cu   -0.00229    0.00003   -0.00606
 96 Cl   -0.02071   -0.00324    0.00147
 97 Cl   -0.00342    0.00591    0.00078
 98 Cl    0.02707    0.01046   -0.03171
 99 Cl    0.00160    0.00694    0.02168
100 Cl    0.03897   -0.02408    0.01074
101 Cl    0.00393   -0.00221    0.01877

System changes: positions 

Initializing position-dependent things.

Density initialized from wave functions
      .----------------------------.  
     /|                            |  
    / |                            |  
   /  |                            |  
  /   |                            |  
 *    |                            |  
 |    |                            |  
 |    |                            |  
 |    |                            |  
 |    |                            |  
 |    |                            |  
 |    |                            |  
 |    |           Cl               |  
 |    |                           Cu  
 |    |Cl     Cu             Cu    |  
 |    | Cu       Cu   Clu       Cu |  
 |    |     Cu   Cu       Cu    Cu |  
 |    Cu   Cu       Cu    Cu       |  
 |    Cu   Cu  Cu   Cu    Cu       |  
 |   Cu  Cu    Cu   Cu Cu    Cu    |  
 |    |  Cu   Cu       Cu    Cu    |  
 | Cu |  Cu   Cu  Cu   Cu    Cu    |  
 | Cu | Cu  Cu   Cu    Cu Cu       |  
 |    |     Cu   Cu       Cu    Cu |  
 |    Cu   Cu    Cu  Cu   Cu    Cu |  
 |    Cu   Cu  Cu   Cu    Cu Cu    |  
 |   Cu        Cu   Cu       Cu    |  
 |    |  Cu   Cu       Cu    Cu    |  
 | Cu |  Cu   Cu  Cu   Cu    Cu    |  
 | Cu | Cu  Cu   Cu    Cu Cu       |  
 |    |     Cu   Cu       Cu    Cu |  
 |    Cu  CCu        Cu   Cu       |  
 |    Cu       Cu   Cu       Cu    |  
 |    |         Cl                 |  
 |    |  Cu             Cu         |  
 |    |                            |  
 |    |                            |  
 |    |                            |  
 |    |                            |  
 |    |                            |  
 |    |                            |  
 |    .----------------------------.  
 |   /                            /   
 |  /                            /    
 | /                            /     
 |/                            /      
 *----------------------------*       

Positions:
   0 Cu     3.193252    0.100918   10.055111    ( 0.0000,  0.0000,  0.0000)
   1 Cu     1.401778    1.918575   10.690186    ( 0.0000,  0.0000,  0.0000)
   2 Cu     7.228887    1.843435   10.594234    ( 0.0000,  0.0000,  0.0000)
   3 Cu     9.069473    0.057617   10.026766    ( 0.0000,  0.0000,  0.0000)
   4 Cu    11.374046    0.058054   11.227930    ( 0.0000,  0.0000,  0.0000)
   5 Cu     9.661282    1.889652   11.799844    ( 0.0000,  0.0000,  0.0000)
   6 Cu     3.797737    1.862908   11.755084    ( 0.0000,  0.0000,  0.0000)
   7 Cu     5.513694    0.013116   11.206202    ( 0.0000,  0.0000,  0.0000)
   8 Cu     7.884087    0.037511   12.329898    ( 0.0000,  0.0000,  0.0000)
   9 Cu     6.134106    1.907991   12.891554    ( 0.0000,  0.0000,  0.0000)
  10 Cu     0.263523    1.879500   12.969264    ( 0.0000,  0.0000,  0.0000)
  11 Cu     2.024940    0.026089   12.355011    ( 0.0000,  0.0000,  0.0000)
  12 Cu     4.365166    0.031654   13.526997    ( 0.0000,  0.0000,  0.0000)
  13 Cu     2.617752    1.898609   14.109564    ( 0.0000,  0.0000,  0.0000)
  14 Cu     8.466626    1.880713   14.111574    ( 0.0000,  0.0000,  0.0000)
  15 Cu    10.205268    0.006720   13.521713    ( 0.0000,  0.0000,  0.0000)
  16 Cu     0.872379    0.027272   14.692803    ( 0.0000,  0.0000,  0.0000)
  17 Cu    10.810249    1.878066   15.280967    ( 0.0000,  0.0000,  0.0000)
  18 Cu     4.974965    1.880567   15.250575    ( 0.0000,  0.0000,  0.0000)
  19 Cu     6.720967    0.027214   14.668574    ( 0.0000,  0.0000,  0.0000)
  20 Cu     9.059002    0.028801   15.861587    ( 0.0000,  0.0000,  0.0000)
  21 Cu     7.303505    1.875320   16.443693    ( 0.0000,  0.0000,  0.0000)
  22 Cu     1.457757    1.877941   16.456159    ( 0.0000,  0.0000,  0.0000)
  23 Cu     3.211801    0.029955   15.855183    ( 0.0000,  0.0000,  0.0000)
  24 Cu     5.555282    0.025415   17.022177    ( 0.0000,  0.0000,  0.0000)
  25 Cu     3.798597    1.878721   17.611070    ( 0.0000,  0.0000,  0.0000)
  26 Cu     9.640619    1.877878   17.629476    ( 0.0000,  0.0000,  0.0000)
  27 Cu    11.404403    0.023434   17.023360    ( 0.0000,  0.0000,  0.0000)
  28 Cu     2.047123    0.027014   18.202478    ( 0.0000,  0.0000,  0.0000)
  29 Cu     0.280106    1.876503   18.779225    ( 0.0000,  0.0000,  0.0000)
  30 Cu     6.138616    1.877050   18.787887    ( 0.0000,  0.0000,  0.0000)
  31 Cu     7.889956    0.028475   18.201800    ( 0.0000,  0.0000,  0.0000)
  32 Cu    10.238966    0.031576   19.360483    ( 0.0000,  0.0000,  0.0000)
  33 Cu     8.479566    1.875386   19.993694    ( 0.0000,  0.0000,  0.0000)
  34 Cu     2.634808    1.876275   19.989059    ( 0.0000,  0.0000,  0.0000)
  35 Cu     4.395326    0.044780   19.363269    ( 0.0000,  0.0000,  0.0000)
  36 Cu     6.743730    0.038765   20.543368    ( 0.0000,  0.0000,  0.0000)
  37 Cu     4.997681    1.895296   21.188979    ( 0.0000,  0.0000,  0.0000)
  38 Cu    10.839929    1.874884   21.154865    ( 0.0000,  0.0000,  0.0000)
  39 Cu     0.893717    0.053782   20.532654    ( 0.0000,  0.0000,  0.0000)
  40 Cu     3.207913    0.014133   21.703668    ( 0.0000,  0.0000,  0.0000)
  41 Cu     1.423095    1.879472   22.406378    ( 0.0000,  0.0000,  0.0000)
  42 Cu     7.298870    1.862228   22.415408    ( 0.0000,  0.0000,  0.0000)
  43 Cu     9.065852    0.020814   21.711933    ( 0.0000,  0.0000,  0.0000)
  44 Cu    11.414771   -0.021669   22.817204    ( 0.0000,  0.0000,  0.0000)
  45 Cu     9.754289    1.872562   23.436761    ( 0.0000,  0.0000,  0.0000)
  46 Cu     3.859140    1.830363   23.428008    ( 0.0000,  0.0000,  0.0000)
  47 Cu     5.570658    0.001812   22.825606    ( 0.0000,  0.0000,  0.0000)
  48 Cu     3.135669    3.677481   10.029019    ( 0.0000,  0.0000,  0.0000)
  49 Cu     1.353689    5.541238   10.544497    ( 0.0000,  0.0000,  0.0000)
  50 Cu     7.334966    5.626122   10.646456    ( 0.0000,  0.0000,  0.0000)
  51 Cu     9.047167    3.714972   10.032515    ( 0.0000,  0.0000,  0.0000)
  52 Cu    11.381632    3.719004   11.204091    ( 0.0000,  0.0000,  0.0000)
  53 Cu     9.670216    5.582163   11.649920    ( 0.0000,  0.0000,  0.0000)
  54 Cu     3.771307    5.601885   11.751934    ( 0.0000,  0.0000,  0.0000)
  55 Cu     5.559692    3.773532   11.086600    ( 0.0000,  0.0000,  0.0000)
  56 Cu     7.881163    3.733171   12.317838    ( 0.0000,  0.0000,  0.0000)
  57 Cu     6.115459    5.562598   12.923887    ( 0.0000,  0.0000,  0.0000)
  58 Cu     0.278251    5.583669   12.921971    ( 0.0000,  0.0000,  0.0000)
  59 Cu     2.027373    3.764348   12.304660    ( 0.0000,  0.0000,  0.0000)
  60 Cu     4.376304    3.728898   13.476674    ( 0.0000,  0.0000,  0.0000)
  61 Cu     2.620092    5.572603   14.110176    ( 0.0000,  0.0000,  0.0000)
  62 Cu     8.467589    5.580312   14.104090    ( 0.0000,  0.0000,  0.0000)
  63 Cu    10.207174    3.753553   13.519747    ( 0.0000,  0.0000,  0.0000)
  64 Cu     0.869893    3.729856   14.683406    ( 0.0000,  0.0000,  0.0000)
  65 Cu    10.818805    5.580289   15.267268    ( 0.0000,  0.0000,  0.0000)
  66 Cu     4.967917    5.574806   15.266770    ( 0.0000,  0.0000,  0.0000)
  67 Cu     6.726624    3.733377   14.683441    ( 0.0000,  0.0000,  0.0000)
  68 Cu     9.059949    3.727017   15.862478    ( 0.0000,  0.0000,  0.0000)
  69 Cu     7.305825    5.580864   16.449052    ( 0.0000,  0.0000,  0.0000)
  70 Cu     1.457452    5.575853   16.452220    ( 0.0000,  0.0000,  0.0000)
  71 Cu     3.217361    3.731735   15.850325    ( 0.0000,  0.0000,  0.0000)
  72 Cu     5.552945    3.723730   17.016368    ( 0.0000,  0.0000,  0.0000)
  73 Cu     3.804608    5.579063   17.618066    ( 0.0000,  0.0000,  0.0000)
  74 Cu     9.647697    5.575121   17.610151    ( 0.0000,  0.0000,  0.0000)
  75 Cu    11.405417    3.731033   17.021535    ( 0.0000,  0.0000,  0.0000)
  76 Cu     2.046641    3.721686   18.197425    ( 0.0000,  0.0000,  0.0000)
  77 Cu     0.286577    5.576211   18.794685    ( 0.0000,  0.0000,  0.0000)
  78 Cu     6.139482    5.567121   18.790354    ( 0.0000,  0.0000,  0.0000)
  79 Cu     7.886979    3.719310   18.207253    ( 0.0000,  0.0000,  0.0000)
  80 Cu    10.239411    3.717017   19.362178    ( 0.0000,  0.0000,  0.0000)
  81 Cu     8.493439    5.567020   19.938914    ( 0.0000,  0.0000,  0.0000)
  82 Cu     2.643706    5.572801   19.944504    ( 0.0000,  0.0000,  0.0000)
  83 Cu     4.394969    3.710003   19.364683    ( 0.0000,  0.0000,  0.0000)
  84 Cu     6.734742    3.697491   20.578744    ( 0.0000,  0.0000,  0.0000)
  85 Cu     4.981165    5.567993   21.109671    ( 0.0000,  0.0000,  0.0000)
  86 Cu    10.843601    5.573729   21.110007    ( 0.0000,  0.0000,  0.0000)
  87 Cu     0.897719    3.698127   20.534695    ( 0.0000,  0.0000,  0.0000)
  88 Cu     3.217960    3.731358   21.718300    ( 0.0000,  0.0000,  0.0000)
  89 Cu     1.474197    5.574805   22.255185    ( 0.0000,  0.0000,  0.0000)
  90 Cu     7.349316    5.580897   22.242335    ( 0.0000,  0.0000,  0.0000)
  91 Cu     9.058857    3.718585   21.724820    ( 0.0000,  0.0000,  0.0000)
  92 Cu    11.409003    3.765331   22.817899    ( 0.0000,  0.0000,  0.0000)
  93 Cu     9.685626    5.571316   23.357667    ( 0.0000,  0.0000,  0.0000)
  94 Cu     3.736032    5.623436   23.404710    ( 0.0000,  0.0000,  0.0000)
  95 Cu     5.589705    3.733687   22.924393    ( 0.0000,  0.0000,  0.0000)
  96 Cl     5.457948    5.129495   24.844443    ( 0.0000,  0.0000,  0.0000)
  97 Cl     2.027109    1.853287   24.749044    ( 0.0000,  0.0000,  0.0000)
  98 Cl     7.907508    1.687157   24.743364    ( 0.0000,  0.0000,  0.0000)
  99 Cl     5.003527    3.796846    8.751219    ( 0.0000,  0.0000,  0.0000)
 100 Cl     1.640387   -0.659795    8.547579    ( 0.0000,  0.0000,  0.0000)
 101 Cl    -3.097950    1.890721    8.534059    ( 0.0000,  0.0000,  0.0000)

Unit cell:
           periodic     x           y           z      points  spacing
  1. axis:    yes   11.703590    0.000000    0.000000    70     0.1672
  2. axis:    yes    0.000000    7.402000    0.000000    42     0.1762
  3. axis:    no     0.000000    0.000000   33.459128   192     0.1743

  Lengths:  11.703590   7.402000  33.459128
  Angles:   90.000000  90.000000  90.000000

Effective grid spacing dv^(1/3) = 0.1725

     iter     time        total  log10-change:
                         energy  eigst   dens
iter:   1 00:54:06 -7490.696703  -4.32
iter:   2 00:56:57 -7490.686997  -4.75  -3.32
iter:   3 00:59:50 -7490.687493c -5.37  -3.57
iter:   4 01:02:38 -7490.683180c -5.90  -3.52
iter:   5 01:05:26 -7490.682836c -6.01  -3.96
iter:   6 01:08:14 -7490.682701c -6.32  -4.20c
iter:   7 01:11:01 -7490.682690c -6.98  -4.42c
iter:   8 01:13:50 -7490.682705c -7.06  -4.53c
iter:   9 01:16:39 -7490.682720c -7.31  -4.68c
iter:  10 01:19:27 -7490.682703c -7.59c -4.82c

Converged after 10 iterations.

Dipole moment: (22.233078, -18.533061, -0.047664) |e|*Ang

Energy contributions relative to reference atoms: (reference = -4397389.073122)

Kinetic:       +721.777377
Potential:     -799.747304
External:        +0.000000
XC:            -7410.923921
Entropy (-ST):   -0.964185
Local:           -1.306762
--------------------------
Free energy:   -7491.164795
Extrapolated:  -7490.682703

Showing only first 2 kpts
 Kpt  Band  Eigenvalues  Occupancy
  0   547      0.16983    0.76546
  0   548      0.25634    0.41402
  0   549      0.28346    0.33199
  0   550      0.32976    0.22266

  1   547     -0.12015    1.83695
  1   548     -0.06664    1.73676
  1   549     -0.03579    1.65791
  1   550      0.00118    1.54008


Fermi level: 0.12203

No gap

Forces in eV/Ang:
  0 Cu   -0.00682    0.00360    0.00421
  1 Cu    0.00407    0.00323   -0.00164
  2 Cu   -0.00087    0.00220   -0.00222
  3 Cu   -0.00155   -0.00311    0.00433
  4 Cu    0.00062   -0.00174   -0.00130
  5 Cu   -0.00409   -0.00181   -0.00236
  6 Cu    0.00060   -0.00248   -0.00986
  7 Cu    0.00063    0.00322    0.00118
  8 Cu    0.00365    0.00018   -0.00665
  9 Cu    0.00345    0.00151   -0.00499
 10 Cu    0.00232   -0.00092    0.00075
 11 Cu   -0.00026   -0.00306   -0.00383
 12 Cu   -0.00139   -0.00082   -0.00638
 13 Cu   -0.00178   -0.00057   -0.00055
 14 Cu   -0.00016    0.00017   -0.00257
 15 Cu    0.00010   -0.00125   -0.00002
 16 Cu   -0.00160    0.00118   -0.00128
 17 Cu   -0.00106    0.00264   -0.00250
 18 Cu   -0.00483    0.00256   -0.00042
 19 Cu    0.00041    0.00149    0.00035
 20 Cu   -0.00188    0.00192   -0.00020
 21 Cu   -0.00232   -0.00203    0.00077
 22 Cu   -0.00115    0.00004    0.00058
 23 Cu   -0.00034   -0.00088   -0.00020
 24 Cu   -0.00092    0.00242   -0.00051
 25 Cu    0.00006   -0.00068    0.00423
 26 Cu    0.00125    0.00056   -0.00152
 27 Cu   -0.00062   -0.00320    0.00009
 28 Cu    0.00278    0.00247    0.00430
 29 Cu   -0.00028    0.00007    0.00112
 30 Cu   -0.00033    0.00019    0.00395
 31 Cu   -0.00163    0.00061    0.00553
 32 Cu   -0.00034   -0.00143    0.00480
 33 Cu   -0.00073    0.00417    0.00388
 34 Cu    0.00094    0.00123    0.00082
 35 Cu   -0.00046    0.00113    0.00191
 36 Cu   -0.00353   -0.00144    0.00394
 37 Cu    0.00170    0.00017   -0.00068
 38 Cu   -0.00469   -0.00017    0.01172
 39 Cu   -0.00140   -0.00370   -0.00320
 40 Cu    0.00164   -0.00380   -0.00191
 41 Cu   -0.00196   -0.00079   -0.00129
 42 Cu   -0.00173   -0.00524   -0.00371
 43 Cu    0.00078    0.00664    0.00555
 44 Cu   -0.00257    0.00874   -0.00105
 45 Cu    0.00088   -0.00035   -0.01074
 46 Cu   -0.00199    0.00029   -0.00225
 47 Cu    0.00196    0.00241   -0.00603
 48 Cu   -0.00843   -0.00438    0.01057
 49 Cu   -0.00177   -0.00364    0.00676
 50 Cu    0.00309    0.00156   -0.00117
 51 Cu   -0.00395   -0.00030    0.00401
 52 Cu   -0.00063    0.00158    0.00195
 53 Cu   -0.00256   -0.00244   -0.00757
 54 Cu   -0.00129   -0.00412   -0.00406
 55 Cu    0.00255   -0.00224   -0.00119
 56 Cu   -0.00223   -0.00102   -0.00367
 57 Cu   -0.00147   -0.00259   -0.00615
 58 Cu   -0.00220   -0.00227   -0.00534
 59 Cu    0.00220    0.00280   -0.00132
 60 Cu    0.00076   -0.00125   -0.00276
 61 Cu   -0.00403   -0.00166   -0.00178
 62 Cu    0.00182   -0.00212   -0.00575
 63 Cu    0.00288    0.00357    0.00037
 64 Cu   -0.00089    0.00054   -0.00296
 65 Cu   -0.00078   -0.00029   -0.00497
 66 Cu   -0.00189    0.00377   -0.00061
 67 Cu   -0.00223   -0.00051   -0.00334
 68 Cu   -0.00047   -0.00105   -0.00201
 69 Cu   -0.00002   -0.00514   -0.00006
 70 Cu   -0.00002    0.00096   -0.00258
 71 Cu   -0.00151   -0.00157   -0.00125
 72 Cu    0.00051   -0.00168    0.00254
 73 Cu    0.00071   -0.00084    0.00508
 74 Cu    0.00007    0.00132    0.00404
 75 Cu    0.00109   -0.00165   -0.00129
 76 Cu    0.00236    0.00382    0.00396
 77 Cu    0.00297    0.00012    0.00417
 78 Cu   -0.00329    0.00294    0.00309
 79 Cu   -0.00072    0.00100    0.00384
 80 Cu    0.00181    0.00125    0.00480
 81 Cu    0.00112    0.00202   -0.00028
 82 Cu    0.00057   -0.00091    0.00534
 83 Cu   -0.00010    0.00183    0.00032
 84 Cu   -0.00377   -0.00240    0.00420
 85 Cu   -0.00494   -0.00169    0.00205
 86 Cu   -0.00076   -0.00143    0.00065
 87 Cu    0.00284    0.00032    0.00102
 88 Cu    0.00073   -0.00148   -0.00187
 89 Cu    0.00505    0.00137   -0.00778
 90 Cu    0.00439   -0.00063   -0.00244
 91 Cu    0.00281   -0.00470    0.00322
 92 Cu   -0.00789   -0.00518   -0.00128
 93 Cu    0.00265   -0.00108   -0.00890
 94 Cu    0.00707    0.00280   -0.00178
 95 Cu   -0.00038    0.00078   -0.00667
 96 Cl   -0.01147   -0.00610    0.00986
 97 Cl    0.00026    0.00611    0.00081
 98 Cl    0.00913    0.00749   -0.00220
 99 Cl    0.00730    0.00530    0.00492
100 Cl    0.02725   -0.02623   -0.01156
101 Cl    0.00097   -0.00270    0.00790

System changes: positions 

Initializing position-dependent things.

Density initialized from wave functions
      .----------------------------.  
     /|                            |  
    / |                            |  
   /  |                            |  
  /   |                            |  
 *    |                            |  
 |    |                            |  
 |    |                            |  
 |    |                            |  
 |    |                            |  
 |    |                            |  
 |    |                            |  
 |    |           Cl               |  
 |    |                           Cu  
 |    |Cl     Cu             Cu    |  
 |    | Cu       Cu   Clu       Cu |  
 |    |     Cu   Cu       Cu    Cu |  
 |    Cu   Cu       Cu    Cu       |  
 |    Cu   Cu  Cu   Cu    Cu       |  
 |   Cu  Cu    Cu   Cu Cu    Cu    |  
 |    |  Cu   Cu       Cu    Cu    |  
 | Cu |  Cu   Cu  Cu   Cu    Cu    |  
 | Cu | Cu  Cu   Cu    Cu Cu       |  
 |    |     Cu   Cu       Cu    Cu |  
 |    Cu   Cu    Cu  Cu   Cu    Cu |  
 |    Cu   Cu  Cu   Cu    Cu Cu    |  
 |   Cu        Cu   Cu       Cu    |  
 |    |  Cu   Cu       Cu    Cu    |  
 | Cu |  Cu   Cu  Cu   Cu    Cu    |  
 | Cu | Cu  Cu   Cu    Cu Cu       |  
 |    |     Cu   Cu       Cu    Cu |  
 |    Cu  CCu        Cu   Cu       |  
 |    Cu       Cu   Cu       Cu    |  
 |    |         Cl                 |  
 |    |  Cu             Cu         |  
 |    |                            |  
 |    |                            |  
 |    |                            |  
 |    |                            |  
 |    |                            |  
 |    |                            |  
 |    .----------------------------.  
 |   /                            /   
 |  /                            /    
 | /                            /     
 |/                            /      
 *----------------------------*       

Positions:
   0 Cu     3.191302    0.099607   10.052808    ( 0.0000,  0.0000,  0.0000)
   1 Cu     1.402233    1.917343   10.691232    ( 0.0000,  0.0000,  0.0000)
   2 Cu     7.230075    1.841578   10.592085    ( 0.0000,  0.0000,  0.0000)
   3 Cu     9.070006    0.058109   10.024259    ( 0.0000,  0.0000,  0.0000)
   4 Cu    11.374008    0.058108   11.227664    ( 0.0000,  0.0000,  0.0000)
   5 Cu     9.660088    1.889124   11.798651    ( 0.0000,  0.0000,  0.0000)
   6 Cu     3.797217    1.862523   11.754620    ( 0.0000,  0.0000,  0.0000)
   7 Cu     5.513433    0.011875   11.206191    ( 0.0000,  0.0000,  0.0000)
   8 Cu     7.883218    0.036279   12.328745    ( 0.0000,  0.0000,  0.0000)
   9 Cu     6.133220    1.907480   12.890596    ( 0.0000,  0.0000,  0.0000)
  10 Cu     0.261330    1.880165   12.969194    ( 0.0000,  0.0000,  0.0000)
  11 Cu     2.024463    0.025973   12.354183    ( 0.0000,  0.0000,  0.0000)
  12 Cu     4.365275    0.032034   13.527017    ( 0.0000,  0.0000,  0.0000)
  13 Cu     2.617443    1.898864   14.109277    ( 0.0000,  0.0000,  0.0000)
  14 Cu     8.465986    1.880173   14.110787    ( 0.0000,  0.0000,  0.0000)
  15 Cu    10.204247    0.006985   13.520997    ( 0.0000,  0.0000,  0.0000)
  16 Cu     0.872351    0.027596   14.692009    ( 0.0000,  0.0000,  0.0000)
  17 Cu    10.809553    1.878090   15.281241    ( 0.0000,  0.0000,  0.0000)
  18 Cu     4.976041    1.880705   15.250455    ( 0.0000,  0.0000,  0.0000)
  19 Cu     6.720682    0.027345   14.668664    ( 0.0000,  0.0000,  0.0000)
  20 Cu     9.059032    0.029254   15.862045    ( 0.0000,  0.0000,  0.0000)
  21 Cu     7.303703    1.875660   16.444147    ( 0.0000,  0.0000,  0.0000)
  22 Cu     1.457605    1.878345   16.455526    ( 0.0000,  0.0000,  0.0000)
  23 Cu     3.212059    0.030488   15.855005    ( 0.0000,  0.0000,  0.0000)
  24 Cu     5.555072    0.025410   17.022384    ( 0.0000,  0.0000,  0.0000)
  25 Cu     3.798559    1.879196   17.610189    ( 0.0000,  0.0000,  0.0000)
  26 Cu     9.639932    1.877836   17.630373    ( 0.0000,  0.0000,  0.0000)
  27 Cu    11.404222    0.024312   17.022973    ( 0.0000,  0.0000,  0.0000)
  28 Cu     2.046634    0.027282   18.201515    ( 0.0000,  0.0000,  0.0000)
  29 Cu     0.280006    1.876676   18.779168    ( 0.0000,  0.0000,  0.0000)
  30 Cu     6.138441    1.877419   18.788134    ( 0.0000,  0.0000,  0.0000)
  31 Cu     7.889677    0.028671   18.201837    ( 0.0000,  0.0000,  0.0000)
  32 Cu    10.239067    0.031319   19.359906    ( 0.0000,  0.0000,  0.0000)
  33 Cu     8.479474    1.874979   19.994345    ( 0.0000,  0.0000,  0.0000)
  34 Cu     2.635539    1.876372   19.989561    ( 0.0000,  0.0000,  0.0000)
  35 Cu     4.395416    0.044775   19.363597    ( 0.0000,  0.0000,  0.0000)
  36 Cu     6.744250    0.039348   20.544663    ( 0.0000,  0.0000,  0.0000)
  37 Cu     4.997995    1.896054   21.191884    ( 0.0000,  0.0000,  0.0000)
  38 Cu    10.840137    1.874929   21.155392    ( 0.0000,  0.0000,  0.0000)
  39 Cu     0.894437    0.054366   20.533873    ( 0.0000,  0.0000,  0.0000)
  40 Cu     3.208382    0.013913   21.705663    ( 0.0000,  0.0000,  0.0000)
  41 Cu     1.424840    1.879231   22.407301    ( 0.0000,  0.0000,  0.0000)
  42 Cu     7.299897    1.862850   22.418698    ( 0.0000,  0.0000,  0.0000)
  43 Cu     9.066206    0.019324   21.712224    ( 0.0000,  0.0000,  0.0000)
  44 Cu    11.414909   -0.021853   22.817630    ( 0.0000,  0.0000,  0.0000)
  45 Cu     9.750426    1.871456   23.440654    ( 0.0000,  0.0000,  0.0000)
  46 Cu     3.859566    1.828823   23.429852    ( 0.0000,  0.0000,  0.0000)
  47 Cu     5.570591    0.001543   22.826943    ( 0.0000,  0.0000,  0.0000)
  48 Cu     3.137542    3.676601   10.027890    ( 0.0000,  0.0000,  0.0000)
  49 Cu     1.351720    5.541100   10.542836    ( 0.0000,  0.0000,  0.0000)
  50 Cu     7.334892    5.625496   10.646056    ( 0.0000,  0.0000,  0.0000)
  51 Cu     9.046898    3.713187   10.029659    ( 0.0000,  0.0000,  0.0000)
  52 Cu    11.380854    3.718312   11.202955    ( 0.0000,  0.0000,  0.0000)
  53 Cu     9.669576    5.581954   11.649542    ( 0.0000,  0.0000,  0.0000)
  54 Cu     3.770931    5.601747   11.753339    ( 0.0000,  0.0000,  0.0000)
  55 Cu     5.558829    3.773053   11.085532    ( 0.0000,  0.0000,  0.0000)
  56 Cu     7.881099    3.733180   12.316220    ( 0.0000,  0.0000,  0.0000)
  57 Cu     6.115489    5.562831   12.923659    ( 0.0000,  0.0000,  0.0000)
  58 Cu     0.278057    5.582938   12.920508    ( 0.0000,  0.0000,  0.0000)
  59 Cu     2.026485    3.764609   12.303618    ( 0.0000,  0.0000,  0.0000)
  60 Cu     4.376113    3.728795   13.476350    ( 0.0000,  0.0000,  0.0000)
  61 Cu     2.620301    5.573148   14.110199    ( 0.0000,  0.0000,  0.0000)
  62 Cu     8.467035    5.580606   14.104421    ( 0.0000,  0.0000,  0.0000)
  63 Cu    10.205691    3.753101   13.518497    ( 0.0000,  0.0000,  0.0000)
  64 Cu     0.869145    3.729900   14.683435    ( 0.0000,  0.0000,  0.0000)
  65 Cu    10.818751    5.580470   15.267173    ( 0.0000,  0.0000,  0.0000)
  66 Cu     4.968392    5.574528   15.266846    ( 0.0000,  0.0000,  0.0000)
  67 Cu     6.727227    3.733516   14.683335    ( 0.0000,  0.0000,  0.0000)
  68 Cu     9.059538    3.727192   15.863045    ( 0.0000,  0.0000,  0.0000)
  69 Cu     7.305478    5.581762   16.449518    ( 0.0000,  0.0000,  0.0000)
  70 Cu     1.457031    5.576017   16.452108    ( 0.0000,  0.0000,  0.0000)
  71 Cu     3.217619    3.732042   15.849805    ( 0.0000,  0.0000,  0.0000)
  72 Cu     5.553002    3.724319   17.016109    ( 0.0000,  0.0000,  0.0000)
  73 Cu     3.804308    5.579124   17.617126    ( 0.0000,  0.0000,  0.0000)
  74 Cu     9.647112    5.575616   17.609400    ( 0.0000,  0.0000,  0.0000)
  75 Cu    11.404606    3.731242   17.021886    ( 0.0000,  0.0000,  0.0000)
  76 Cu     2.046235    3.721391   18.196493    ( 0.0000,  0.0000,  0.0000)
  77 Cu     0.285838    5.576804   18.794055    ( 0.0000,  0.0000,  0.0000)
  78 Cu     6.139601    5.566893   18.790718    ( 0.0000,  0.0000,  0.0000)
  79 Cu     7.886397    3.719280   18.207166    ( 0.0000,  0.0000,  0.0000)
  80 Cu    10.238384    3.717052   19.362100    ( 0.0000,  0.0000,  0.0000)
  81 Cu     8.492948    5.566923   19.939594    ( 0.0000,  0.0000,  0.0000)
  82 Cu     2.643583    5.573245   19.944750    ( 0.0000,  0.0000,  0.0000)
  83 Cu     4.395030    3.710253   19.365696    ( 0.0000,  0.0000,  0.0000)
  84 Cu     6.735391    3.697766   20.580368    ( 0.0000,  0.0000,  0.0000)
  85 Cu     4.982268    5.568224   21.111603    ( 0.0000,  0.0000,  0.0000)
  86 Cu    10.843805    5.573374   21.111483    ( 0.0000,  0.0000,  0.0000)
  87 Cu     0.897605    3.698431   20.534763    ( 0.0000,  0.0000,  0.0000)
  88 Cu     3.218287    3.731839   21.719531    ( 0.0000,  0.0000,  0.0000)
  89 Cu     1.472826    5.575058   22.256901    ( 0.0000,  0.0000,  0.0000)
  90 Cu     7.349311    5.581548   22.243927    ( 0.0000,  0.0000,  0.0000)
  91 Cu     9.059944    3.719843   21.725513    ( 0.0000,  0.0000,  0.0000)
  92 Cu    11.410043    3.764764   22.818129    ( 0.0000,  0.0000,  0.0000)
  93 Cu     9.686942    5.570767   23.359351    ( 0.0000,  0.0000,  0.0000)
  94 Cu     3.735906    5.623053   23.406958    ( 0.0000,  0.0000,  0.0000)
  95 Cu     5.589693    3.733560   22.926581    ( 0.0000,  0.0000,  0.0000)
  96 Cl     5.452274    5.123625   24.848839    ( 0.0000,  0.0000,  0.0000)
  97 Cl     2.026687    1.857312   24.751218    ( 0.0000,  0.0000,  0.0000)
  98 Cl     7.907351    1.692861   24.744140    ( 0.0000,  0.0000,  0.0000)
  99 Cl     5.004624    3.802601    8.751796    ( 0.0000,  0.0000,  0.0000)
 100 Cl     1.657364   -0.679363    8.541237    ( 0.0000,  0.0000,  0.0000)
 101 Cl    -3.093668    1.889768    8.531129    ( 0.0000,  0.0000,  0.0000)

Unit cell:
           periodic     x           y           z      points  spacing
  1. axis:    yes   11.703590    0.000000    0.000000    70     0.1672
  2. axis:    yes    0.000000    7.402000    0.000000    42     0.1762
  3. axis:    no     0.000000    0.000000   33.459128   192     0.1743

  Lengths:  11.703590   7.402000  33.459128
  Angles:   90.000000  90.000000  90.000000

Effective grid spacing dv^(1/3) = 0.1725

     iter     time        total  log10-change:
                         energy  eigst   dens
iter:   1 01:23:52 -7490.705576  -4.04
iter:   2 01:26:41 -7490.687028  -4.61  -3.23
iter:   3 01:29:30 -7490.685679c -5.59  -3.58
iter:   4 01:32:19 -7490.685609c -5.77  -3.68
iter:   5 01:35:06 -7490.684149c -5.74  -3.72
iter:   6 01:37:54 -7490.683878c -6.12  -4.03c
iter:   7 01:40:41 -7490.683872c -6.61  -4.29c
iter:   8 01:43:29 -7490.683876c -7.04  -4.39c
iter:   9 01:46:17 -7490.683885c -7.03  -4.51c
iter:  10 01:49:06 -7490.683866c -7.41c -4.71c

Converged after 10 iterations.

Dipole moment: (22.288218, -18.874880, -0.049460) |e|*Ang

Energy contributions relative to reference atoms: (reference = -4397389.073122)

Kinetic:       +721.605641
Potential:     -799.637391
External:        +0.000000
XC:            -7410.862210
[...]
   9 Cu     6.133327    1.907473   12.889041    ( 0.0000,  0.0000,  0.0000)
  10 Cu     0.260004    1.880471   12.969329    ( 0.0000,  0.0000,  0.0000)
  11 Cu     2.024112    0.025506   12.353352    ( 0.0000,  0.0000,  0.0000)
  12 Cu     4.365071    0.032236   13.526528    ( 0.0000,  0.0000,  0.0000)
  13 Cu     2.616943    1.899033   14.108923    ( 0.0000,  0.0000,  0.0000)
  14 Cu     8.465349    1.879839   14.109948    ( 0.0000,  0.0000,  0.0000)
  15 Cu    10.203431    0.006807   13.520665    ( 0.0000,  0.0000,  0.0000)
  16 Cu     0.871939    0.027887   14.691188    ( 0.0000,  0.0000,  0.0000)
  17 Cu    10.808733    1.878467   15.281156    ( 0.0000,  0.0000,  0.0000)
  18 Cu     4.976230    1.881149   15.250241    ( 0.0000,  0.0000,  0.0000)
  19 Cu     6.720607    0.027612   14.668788    ( 0.0000,  0.0000,  0.0000)
  20 Cu     9.058701    0.029788   15.862284    ( 0.0000,  0.0000,  0.0000)
  21 Cu     7.303583    1.875652   16.444474    ( 0.0000,  0.0000,  0.0000)
  22 Cu     1.457271    1.878686   16.455069    ( 0.0000,  0.0000,  0.0000)
  23 Cu     3.212161    0.030805   15.854780    ( 0.0000,  0.0000,  0.0000)
  24 Cu     5.554827    0.025747   17.022646    ( 0.0000,  0.0000,  0.0000)
  25 Cu     3.798661    1.879543   17.610283    ( 0.0000,  0.0000,  0.0000)
  26 Cu     9.639609    1.877946   17.630894    ( 0.0000,  0.0000,  0.0000)
  27 Cu    11.404003    0.024656   17.022704    ( 0.0000,  0.0000,  0.0000)
  28 Cu     2.046643    0.027815   18.201646    ( 0.0000,  0.0000,  0.0000)
  29 Cu     0.279969    1.876833   18.779590    ( 0.0000,  0.0000,  0.0000)
  30 Cu     6.138187    1.877741   18.789194    ( 0.0000,  0.0000,  0.0000)
  31 Cu     7.889174    0.028839   18.202869    ( 0.0000,  0.0000,  0.0000)
  32 Cu    10.239143    0.030939   19.360492    ( 0.0000,  0.0000,  0.0000)
  33 Cu     8.479290    1.875221   19.995698    ( 0.0000,  0.0000,  0.0000)
  34 Cu     2.636198    1.876577   19.990045    ( 0.0000,  0.0000,  0.0000)
  35 Cu     4.395457    0.044924   19.364332    ( 0.0000,  0.0000,  0.0000)
  36 Cu     6.744178    0.039913   20.546098    ( 0.0000,  0.0000,  0.0000)
  37 Cu     4.998703    1.896573   21.193606    ( 0.0000,  0.0000,  0.0000)
  38 Cu    10.839408    1.874804   21.157843    ( 0.0000,  0.0000,  0.0000)
  39 Cu     0.894773    0.054401   20.534362    ( 0.0000,  0.0000,  0.0000)
  40 Cu     3.208785    0.013101   21.706927    ( 0.0000,  0.0000,  0.0000)
  41 Cu     1.425955    1.878948   22.408106    ( 0.0000,  0.0000,  0.0000)
  42 Cu     7.299952    1.862808   22.419817    ( 0.0000,  0.0000,  0.0000)
  43 Cu     9.066786    0.019152   21.713037    ( 0.0000,  0.0000,  0.0000)
  44 Cu    11.414703   -0.020488   22.818279    ( 0.0000,  0.0000,  0.0000)
  45 Cu     9.750776    1.870790   23.440229    ( 0.0000,  0.0000,  0.0000)
  46 Cu     3.859190    1.827691   23.431996    ( 0.0000,  0.0000,  0.0000)
  47 Cu     5.570914    0.001529   22.827525    ( 0.0000,  0.0000,  0.0000)
  48 Cu     3.137367    3.675185   10.028488    ( 0.0000,  0.0000,  0.0000)
  49 Cu     1.349751    5.540191   10.542542    ( 0.0000,  0.0000,  0.0000)
  50 Cu     7.335140    5.625119   10.645365    ( 0.0000,  0.0000,  0.0000)
  51 Cu     9.046401    3.711994   10.027861    ( 0.0000,  0.0000,  0.0000)
  52 Cu    11.379978    3.717764   11.202279    ( 0.0000,  0.0000,  0.0000)
  53 Cu     9.668748    5.581493   11.648027    ( 0.0000,  0.0000,  0.0000)
  54 Cu     3.770374    5.601288   11.754164    ( 0.0000,  0.0000,  0.0000)
  55 Cu     5.558851    3.772322   11.085090    ( 0.0000,  0.0000,  0.0000)
  56 Cu     7.880534    3.732816   12.314647    ( 0.0000,  0.0000,  0.0000)
  57 Cu     6.115311    5.562410   12.923033    ( 0.0000,  0.0000,  0.0000)
  58 Cu     0.277542    5.582250   12.919053    ( 0.0000,  0.0000,  0.0000)
  59 Cu     2.026202    3.765052   12.302838    ( 0.0000,  0.0000,  0.0000)
  60 Cu     4.376121    3.728499   13.475802    ( 0.0000,  0.0000,  0.0000)
  61 Cu     2.619839    5.573346   14.110162    ( 0.0000,  0.0000,  0.0000)
  62 Cu     8.466896    5.580591   14.104120    ( 0.0000,  0.0000,  0.0000)
  63 Cu    10.204726    3.753288   13.517941    ( 0.0000,  0.0000,  0.0000)
  64 Cu     0.868428    3.730095   14.683035    ( 0.0000,  0.0000,  0.0000)
  65 Cu    10.818538    5.580611   15.266287    ( 0.0000,  0.0000,  0.0000)
  66 Cu     4.968521    5.574788   15.266671    ( 0.0000,  0.0000,  0.0000)
  67 Cu     6.727425    3.733524   14.682759    ( 0.0000,  0.0000,  0.0000)
  68 Cu     9.059163    3.727197   15.863098    ( 0.0000,  0.0000,  0.0000)
  69 Cu     7.305271    5.581904   16.449810    ( 0.0000,  0.0000,  0.0000)
  70 Cu     1.456686    5.576280   16.451612    ( 0.0000,  0.0000,  0.0000)
  71 Cu     3.217589    3.732119   15.849210    ( 0.0000,  0.0000,  0.0000)
  72 Cu     5.553051    3.724530   17.016434    ( 0.0000,  0.0000,  0.0000)
  73 Cu     3.804164    5.579101   17.617334    ( 0.0000,  0.0000,  0.0000)
  74 Cu     9.646619    5.576075   17.609532    ( 0.0000,  0.0000,  0.0000)
  75 Cu    11.404035    3.731205   17.022101    ( 0.0000,  0.0000,  0.0000)
  76 Cu     2.046244    3.721701   18.196597    ( 0.0000,  0.0000,  0.0000)
  77 Cu     0.285648    5.577228   18.794370    ( 0.0000,  0.0000,  0.0000)
  78 Cu     6.139253    5.567140   18.791601    ( 0.0000,  0.0000,  0.0000)
  79 Cu     7.885885    3.719507   18.207921    ( 0.0000,  0.0000,  0.0000)
  80 Cu    10.237903    3.717335   19.362798    ( 0.0000,  0.0000,  0.0000)
  81 Cu     8.492725    5.567085   19.940002    ( 0.0000,  0.0000,  0.0000)
  82 Cu     2.643506    5.573497   19.945715    ( 0.0000,  0.0000,  0.0000)
  83 Cu     4.395085    3.710681   19.366557    ( 0.0000,  0.0000,  0.0000)
  84 Cu     6.735539    3.697484   20.582270    ( 0.0000,  0.0000,  0.0000)
  85 Cu     4.982419    5.568153   21.113209    ( 0.0000,  0.0000,  0.0000)
  86 Cu    10.843927    5.573090   21.112037    ( 0.0000,  0.0000,  0.0000)
  87 Cu     0.897957    3.698692   20.534930    ( 0.0000,  0.0000,  0.0000)
  88 Cu     3.218379    3.732247   21.720305    ( 0.0000,  0.0000,  0.0000)
  89 Cu     1.472800    5.575367   22.257716    ( 0.0000,  0.0000,  0.0000)
  90 Cu     7.349968    5.581827   22.245286    ( 0.0000,  0.0000,  0.0000)
  91 Cu     9.061036    3.719999   21.726311    ( 0.0000,  0.0000,  0.0000)
  92 Cu    11.410024    3.763126   22.818713    ( 0.0000,  0.0000,  0.0000)
  93 Cu     9.688245    5.570305   23.360417    ( 0.0000,  0.0000,  0.0000)
  94 Cu     3.735842    5.623301   23.408523    ( 0.0000,  0.0000,  0.0000)
  95 Cu     5.589783    3.733724   22.927871    ( 0.0000,  0.0000,  0.0000)
  96 Cl     5.446417    5.117815   24.854741    ( 0.0000,  0.0000,  0.0000)
  97 Cl     2.026279    1.861482   24.752983    ( 0.0000,  0.0000,  0.0000)
  98 Cl     7.905848    1.698341   24.747794    ( 0.0000,  0.0000,  0.0000)
  99 Cl     5.007385    3.808287    8.751402    ( 0.0000,  0.0000,  0.0000)
 100 Cl     1.674492   -0.699669    8.532018    ( 0.0000,  0.0000,  0.0000)
 101 Cl    -3.090017    1.888669    8.528110    ( 0.0000,  0.0000,  0.0000)

Unit cell:
           periodic     x           y           z      points  spacing
  1. axis:    yes   11.703590    0.000000    0.000000    70     0.1672
  2. axis:    yes    0.000000    7.402000    0.000000    42     0.1762
  3. axis:    no     0.000000    0.000000   33.459128   192     0.1743

  Lengths:  11.703590   7.402000  33.459128
  Angles:   90.000000  90.000000  90.000000

Effective grid spacing dv^(1/3) = 0.1725

     iter     time        total  log10-change:
                         energy  eigst   dens
iter:   1 01:53:32 -7490.732025  -4.09
iter:   2 01:56:20 -7490.783951  -4.01  -3.07
iter:   3 01:59:08 -7490.689247c -4.53  -2.89
iter:   4 02:01:56 -7490.686032c -6.13  -3.57
iter:   5 02:04:43 -7490.685816c -5.75  -3.95
iter:   6 02:07:31 -7490.685682c -6.65  -4.24c
iter:   7 02:10:19 -7490.685664c -7.05  -4.36c
iter:   8 02:13:06 -7490.685657c -6.79  -4.47c
iter:   9 02:15:54 -7490.685654c -7.40c -4.64c

Converged after 9 iterations.

Dipole moment: (22.325941, -19.293607, -0.043981) |e|*Ang

Energy contributions relative to reference atoms: (reference = -4397389.073122)

Kinetic:       +721.404693
Potential:     -799.500473
External:        +0.000000
XC:            -7410.782442
Entropy (-ST):   -0.965063
Local:           -1.324901
--------------------------
Free energy:   -7491.168186
Extrapolated:  -7490.685654

Showing only first 2 kpts
 Kpt  Band  Eigenvalues  Occupancy
  0   547      0.16720    0.76459
  0   548      0.25333    0.41462
  0   549      0.28210    0.32798
  0   550      0.32657    0.22339

  1   547     -0.12211    1.83567
  1   548     -0.06964    1.73717
  1   549     -0.03755    1.65490
  1   550     -0.00045    1.53584


Fermi level: 0.11921

No gap

Forces in eV/Ang:
  0 Cu   -0.00322    0.00694    0.00755
  1 Cu   -0.00035    0.00392   -0.00443
  2 Cu   -0.00923    0.00753    0.00046
  3 Cu   -0.00126   -0.00796    0.00902
  4 Cu    0.00239   -0.00103   -0.00314
  5 Cu   -0.00085    0.00122   -0.00246
  6 Cu    0.00316   -0.00017   -0.00851
  7 Cu    0.00296    0.00741   -0.00398
  8 Cu    0.00454    0.00452   -0.00333
  9 Cu    0.00520    0.00253   -0.00358
 10 Cu    0.01106   -0.00270   -0.00145
 11 Cu   -0.00202   -0.00317   -0.00266
 12 Cu   -0.00365   -0.00034   -0.00634
 13 Cu   -0.00099   -0.00113   -0.00387
 14 Cu   -0.00019    0.00340   -0.00054
 15 Cu    0.00386   -0.00460    0.00349
 16 Cu   -0.00313   -0.00159    0.00038
 17 Cu    0.00034    0.00290   -0.00449
 18 Cu   -0.01080    0.00231   -0.00352
 19 Cu    0.00133    0.00060   -0.00451
 20 Cu   -0.00264   -0.00134   -0.00333
 21 Cu   -0.00381   -0.00184   -0.00153
 22 Cu   -0.00121   -0.00092    0.00089
 23 Cu   -0.00355   -0.00261   -0.00123
 24 Cu   -0.00125    0.00300   -0.00102
 25 Cu   -0.00009   -0.00106    0.00700
 26 Cu    0.00303    0.00099   -0.00340
 27 Cu    0.00043   -0.00702   -0.00141
 28 Cu    0.00569    0.00030    0.00604
 29 Cu   -0.00182   -0.00008    0.00421
 30 Cu   -0.00156   -0.00095    0.00386
 31 Cu   -0.00194    0.00163    0.00645
 32 Cu   -0.00101    0.00363    0.00925
 33 Cu    0.00196    0.00494    0.00143
 34 Cu   -0.00087   -0.00026    0.00314
 35 Cu   -0.00085    0.00106    0.00174
 36 Cu   -0.00586   -0.00440   -0.00180
 37 Cu   -0.00531   -0.00441   -0.01254
 38 Cu   -0.00010   -0.00162    0.00220
 39 Cu   -0.00373   -0.00253   -0.00597
 40 Cu   -0.00043    0.00018   -0.00658
 41 Cu   -0.00426   -0.00012   -0.00308
 42 Cu   -0.00260   -0.00694   -0.00878
 43 Cu   -0.00017    0.01174    0.00735
 44 Cu   -0.00031    0.00809    0.00056
 45 Cu    0.01057    0.00250   -0.01439
 46 Cu   -0.00852    0.00486   -0.00274
 47 Cu    0.00011    0.00234   -0.00613
 48 Cu   -0.00515   -0.00003    0.00275
 49 Cu    0.00466    0.00214    0.00108
 50 Cu   -0.00091    0.00193   -0.00968
 51 Cu   -0.00409    0.00513    0.01220
 52 Cu   -0.00362   -0.00096    0.00460
 53 Cu    0.00193   -0.00331   -0.00939
 54 Cu    0.00011   -0.00439   -0.01295
 55 Cu    0.00667   -0.00251    0.00031
 56 Cu   -0.00178   -0.00235   -0.00109
 57 Cu   -0.00187   -0.00336   -0.00543
 58 Cu   -0.00321    0.00172    0.00105
 59 Cu    0.00546   -0.00318    0.01258
 60 Cu   -0.00139   -0.00381   -0.00512
 61 Cu   -0.00731   -0.00477   -0.00286
 62 Cu    0.00237   -0.00291   -0.00951
 63 Cu    0.00558    0.00501    0.00479
 64 Cu    0.00210    0.00193   -0.00458
 65 Cu   -0.00083   -0.00042   -0.00651
 66 Cu   -0.00584    0.00462   -0.00353
 67 Cu   -0.00493   -0.00202   -0.00599
 68 Cu    0.00034   -0.00129   -0.00598
 69 Cu    0.00124   -0.00777   -0.00362
 70 Cu    0.00061    0.00084   -0.00375
 71 Cu   -0.00455   -0.00174   -0.00173
 72 Cu   -0.00127   -0.00380    0.00279
 73 Cu   -0.00024    0.00006    0.00867
 74 Cu    0.00350   -0.00137    0.00327
 75 Cu    0.00392    0.00059   -0.00405
 76 Cu    0.00407    0.00672    0.00527
 77 Cu    0.00685   -0.00291    0.00454
 78 Cu   -0.00605    0.00496    0.00369
 79 Cu    0.00107    0.00089    0.00575
 80 Cu    0.00763   -0.00074    0.00509
 81 Cu    0.00308    0.00252   -0.00322
 82 Cu    0.00352   -0.00162    0.00284
 83 Cu    0.00020    0.00144   -0.00340
 84 Cu   -0.00575   -0.00057   -0.00164
 85 Cu   -0.00767   -0.00275   -0.00397
 86 Cu    0.00227    0.00149   -0.00448
 87 Cu    0.00278   -0.00324    0.00353
 88 Cu   -0.00189   -0.00408   -0.00161
 89 Cu    0.01027   -0.00016   -0.01023
 90 Cu    0.00396   -0.00359   -0.00629
 91 Cu   -0.00403   -0.00958    0.00218
 92 Cu   -0.00519   -0.00343    0.00199
 93 Cu    0.00335    0.00308   -0.01143
 94 Cu    0.00738    0.00511   -0.00180
 95 Cu   -0.00159    0.00752   -0.00050
 96 Cl   -0.01417   -0.00602    0.00021
 97 Cl   -0.00071    0.00303   -0.01067
 98 Cl    0.01960    0.00316   -0.01149
 99 Cl   -0.00116   -0.00291    0.02189
100 Cl    0.01804   -0.01787    0.00488
101 Cl   -0.00683   -0.00304    0.02232

Timing:                                      incl.     excl.
-------------------------------------------------------------------
Density initialized from wave functions:    49.520    49.519   0.3% |
 Symmetrize density:                         0.000     0.000   0.0% |
Forces:                                    365.545   365.545   2.4% ||
Hamiltonian:                                88.249     0.108   0.0% |
 Atomic:                                     4.598     1.525   0.0% |
  XC Correction:                             3.072     3.072   0.0% |
 Calculate atomic Hamiltonians:             26.418    26.418   0.2% |
 Communicate:                                0.569     0.569   0.0% |
 Initialize Hamiltonian:                     0.001     0.001   0.0% |
 Poisson:                                    0.044     0.044   0.0% |
 XC 3D grid:                                56.512     7.233   0.0% |
  VdW-DF integral:                          49.279     0.289   0.0% |
   Convolution:                              3.375     3.375   0.0% |
   FFT:                                      1.377     1.377   0.0% |
   gather:                                  15.102    15.102   0.1% |
   hmm1:                                     0.846     0.846   0.0% |
   hmm2:                                     1.940     1.940   0.0% |
   iFFT:                                     1.555     1.555   0.0% |
   potential:                               18.024     0.202   0.0% |
    collect:                                 2.552     2.552   0.0% |
    p1:                                      9.257     9.257   0.1% |
    p2:                                      2.823     2.823   0.0% |
    sum:                                     3.190     3.190   0.0% |
   splines:                                  6.770     6.770   0.0% |
LCAO initialization:                      1031.271     0.761   0.0% |
 LCAO eigensolver:                          30.445     0.002   0.0% |
  Blacs Orbital Layouts:                     2.582     0.000   0.0% |
   General diagonalize:                      2.553     2.553   0.0% |
   Redistribute coefs:                       0.016     0.016   0.0% |
   Send coefs to domains:                    0.013     0.013   0.0% |
  Calculate projections:                     0.015     0.015   0.0% |
  Distribute overlap matrix:                27.380     0.002   0.0% |
   Scalapack redistribute:                   0.032     0.032   0.0% |
   blocked summation:                       27.346    27.346   0.2% |
  Potential matrix:                          0.193     0.193   0.0% |
  SparseAtomicCorrection:                    0.012     0.012   0.0% |
  Sum over cells:                            0.260     0.260   0.0% |
 LCAO to grid:                             993.957   993.957   6.6% |--|
 Set positions (LCAO WFS):                   6.109     0.020   0.0% |
  Basic WFS set positions:                   0.007     0.007   0.0% |
  Basis functions set positions:             0.001     0.001   0.0% |
  P tci:                                     0.000     0.000   0.0% |
  ST tci:                                    0.956     0.956   0.0% |
  Scalapack redistribute:                    0.067     0.067   0.0% |
  blocked summation:                         4.783     4.783   0.0% |
  mktci:                                     0.276     0.276   0.0% |
PWDescriptor:                                1.109     1.109   0.0% |
Redistribute:                                0.005     0.005   0.0% |
SCF-cycle:                               13332.779   154.973   1.0% |
 Davidson:                               11380.123  3569.001  23.8% |---------|
  Apply H:                                 754.775   743.401   5.0% |-|
   HMM T:                                   11.374    11.374   0.1% |
  Subspace diag:                          1721.831     0.014   0.0% |
   calc_h_matrix:                         1094.139   363.848   2.4% ||
    Apply H:                               730.290   718.103   4.8% |-|
     HMM T:                                 12.187    12.187   0.1% |
   diagonalize:                             50.987    50.987   0.3% |
   rotate_psi:                             576.691   576.691   3.8% |-|
  calc. matrices:                         3878.544  2418.083  16.1% |-----|
   Apply H:                               1460.460  1436.990   9.6% |---|
    HMM T:                                  23.470    23.470   0.2% |
  diagonalize:                             325.531   325.531   2.2% ||
  rotate_psi:                             1130.441  1130.441   7.5% |--|
 Density:                                  716.474     0.004   0.0% |
  Atomic density matrices:                   2.546     2.546   0.0% |
  Mix:                                     353.732   353.732   2.4% ||
  Multipole moments:                         0.132     0.132   0.0% |
  Pseudo density:                          360.060   360.057   2.4% ||
   Symmetrize density:                       0.003     0.003   0.0% |
 Hamiltonian:                              976.234     1.505   0.0% |
  Atomic:                                   47.026     9.521   0.1% |
   XC Correction:                           37.506    37.506   0.2% |
  Calculate atomic Hamiltonians:           320.493   320.493   2.1% ||
  Communicate:                              11.976    11.976   0.1% |
  Poisson:                                   0.553     0.553   0.0% |
  XC 3D grid:                              594.679    85.604   0.6% |
   VdW-DF integral:                        509.076     3.539   0.0% |
    Convolution:                            43.020    43.020   0.3% |
    FFT:                                    17.467    17.467   0.1% |
    gather:                                174.547   174.547   1.2% |
    hmm1:                                   10.544    10.544   0.1% |
    hmm2:                                   24.109    24.109   0.2% |
    iFFT:                                   19.605    19.605   0.1% |
    potential:                             216.244     2.473   0.0% |
     collect:                               30.033    30.033   0.2% |
     p1:                                   113.646   113.646   0.8% |
     p2:                                    34.983    34.983   0.2% |
     sum:                                   35.108    35.108   0.2% |
    splines:                                 0.001     0.001   0.0% |
 Orthonormalize:                           104.976     0.002   0.0% |
  calc_s_matrix:                            13.696    13.696   0.1% |
  inverse-cholesky:                          2.872     2.872   0.0% |
  projections:                              66.040    66.040   0.4% |
  rotate_psi_s:                             22.365    22.365   0.1% |
Set symmetry:                                0.002     0.002   0.0% |
Other:                                     144.720   144.720   1.0% |
-------------------------------------------------------------------
Total:                                             15013.198 100.0%

Memory usage: 2.47 GiB
Date: Thu Oct 20 02:16:54 2022
