
  ___ ___ ___ _ _ _  
 |   |   |_  | | | | 
 | | | | | . | | | | 
 |__ |  _|___|_____|  22.1.0
 |___|_|             

User:   thorkong@node027.cluster
Date:   Mon Oct 17 13:19:31 2022
Arch:   x86_64
Pid:    38360
Python: 3.10.5
gpaw:   /groups/kemi/thorkong/miniconda3/envs/gpaw22/lib/python3.10/site-packages/gpaw
_gpaw:  /groups/kemi/thorkong/miniconda3/envs/gpaw22/lib/python3.10/site-packages/
        _gpaw.cpython-310-x86_64-linux-gnu.so
ase:    /groups/kemi/thorkong/miniconda3/envs/gpaw22/lib/python3.10/site-packages/ase (version 3.22.1)
numpy:  /groups/kemi/thorkong/miniconda3/envs/gpaw22/lib/python3.10/site-packages/numpy (version 1.23.0)
scipy:  /groups/kemi/thorkong/miniconda3/envs/gpaw22/lib/python3.10/site-packages/scipy (version 1.8.1)
libxc:  5.2.3
units:  Angstrom and eV
cores: 32
OpenMP: True
OMP_NUM_THREADS: 1

Input parameters:
  basis: dzp
  kpts: [4 4 1]
  mode: {ecut: 600.0,
         name: pw}
  xc: BEEF-vdW

System changes: positions, numbers, cell, pbc, initial_charges, initial_magmoms 

Initialize ...

Cu-setup:
  name: Copper
  id: f1c4d45d90492f1bbfdcb091e8418fdf
  Z: 29.0
  valence: 11
  core: 18
  charge: 0.0
  file: /groups/kemi/thorkong/miniconda3/envs/gpaw22/share/gpaw/Cu.PBE.gz
  compensation charges: gauss, rc=0.33, lmax=2
  cutoffs: 2.06(filt), 2.43(core),
  valence states:
                energy  radius
    4s(1.00)    -4.609   1.164
    4p(0.00)    -0.698   1.164
    3d(10.00)    -5.039   1.058
    *s          22.603   1.164
    *p          26.513   1.164
    *d          22.172   1.058

  LCAO basis set for Cu:
    Name: dzp
    File: /groups/kemi/thorkong/miniconda3/envs/gpaw22/share/gpaw/Cu.dzp.basis.gz
    Number of radial functions: 5
    Number of spherical harmonics: 15
      l=0, rc=8.9688 Bohr: 4s-sz confined orbital
      l=2, rc=5.1719 Bohr: 3d-sz confined orbital
      l=0, rc=5.3281 Bohr: 4s-dz split-valence wave
      l=2, rc=3.1406 Bohr: 3d-dz split-valence wave
      l=1, rc=8.9688 Bohr: p-type Gaussian polarization

Cl-setup:
  name: Chlorine
  id: 726897f06f34e53cf8e33b5885a02604
  Z: 17.0
  valence: 7
  core: 10
  charge: 0.0
  file: /groups/kemi/thorkong/miniconda3/envs/gpaw22/share/gpaw/Cl.PBE.gz
  compensation charges: gauss, rc=0.25, lmax=2
  cutoffs: 1.40(filt), 1.49(core),
  valence states:
                energy  radius
    3s(2.00)   -20.689   0.794
    3p(5.00)    -8.594   0.794
    *s           6.523   0.794
    *p          18.617   0.794
    *d           0.000   0.794

  LCAO basis set for Cl:
    Name: dzp
    File: /groups/kemi/thorkong/miniconda3/envs/gpaw22/share/gpaw/Cl.dzp.basis.gz
    Number of radial functions: 5
    Number of spherical harmonics: 13
      l=0, rc=5.1719 Bohr: 3s-sz confined orbital
      l=1, rc=6.2656 Bohr: 3p-sz confined orbital
      l=0, rc=2.8281 Bohr: 3s-dz split-valence wave
      l=1, rc=3.5156 Bohr: 3p-dz split-valence wave
      l=2, rc=6.2656 Bohr: d-type Gaussian polarization

Reference energy: -2581817.792169

Spin-paired calculation

Convergence criteria:
 Maximum [total energy] change in last 3 cyles: 0.0005 eV / electron
 Maximum integral of absolute [dens]ity change: 0.0001 electrons / valence electron
 Maximum integral of absolute [eigenst]ate change: 4e-08 eV^2 / valence electron
 Maximum number of scf [iter]ations: 333
 (Square brackets indicate name in SCF output, whereas a 'c' in
 the SCF output indicates the quantity has converged.)

Symmetries present (total): 1

  ( 1  0  0)
  ( 0  1  0)
  ( 0  0  1)

16 k-points: 4 x 4 x 1 Monkhorst-Pack grid
8 k-points in the irreducible part of the Brillouin zone
       k-points in crystal coordinates                weights
   0:     0.12500000   -0.37500000    0.00000000          2/16
   1:     0.12500000   -0.12500000    0.00000000          2/16
   2:     0.12500000    0.12500000    0.00000000          2/16
   3:     0.12500000    0.37500000    0.00000000          2/16
   4:     0.37500000   -0.37500000    0.00000000          2/16
   5:     0.37500000   -0.12500000    0.00000000          2/16
   6:     0.37500000    0.12500000    0.00000000          2/16
   7:     0.37500000    0.37500000    0.00000000          2/16

Wave functions: Plane wave expansion
  Cutoff energy: 600.000 eV
  Number of coefficients (min, max): 54614, 54705
  Pulay-stress correction: 0.000000 eV/Ang^3 (de/decut=0.000000)
  Using FFTW library
  ScaLapack parameters: grid=2x2, blocksize=64
  Wavefunction extrapolation:
    Improved wavefunction reuse through dual PAW basis 

Occupation numbers: Fermi-Dirac: width=0.1000 eV
 

Eigensolver
   Davidson(niter=2) 

Densities:
  Coarse grid: 45*45*175 grid
  Fine grid: 90*90*350 grid
  Total Charge: 0.000000 

Density mixing:
  Method: separate
  Backend: pulay
  Linear mixing parameter: 0.05
  Mixing with 5 old densities
  Damping of long wave oscillations: 50 

Hamiltonian:
  XC and Coulomb potentials evaluated on a 90*90*350 grid
  Using the BEEF-vdW Exchange-Correlation functional
  External potential:
    NoExternalPotential
 

XC parameters: BEEF-vdW with 2 nearest neighbor stencil

Memory estimate:
  Process memory now: 243.12 MiB
  Calculator: 788.46 MiB
    Density: 42.61 MiB
      Arrays: 17.67 MiB
      Localized functions: 18.14 MiB
      Mixer: 6.80 MiB
    Hamiltonian: 12.00 MiB
      Arrays: 11.56 MiB
      XC: 0.00 MiB
      Poisson: 0.00 MiB
      vbar: 0.44 MiB
    Wavefunctions: 733.85 MiB
      Arrays psit_nG: 343.07 MiB
      Eigensolver: 373.04 MiB
      Projections: 1.77 MiB
      Projectors: 2.09 MiB
      PW-descriptor: 13.88 MiB

Total number of cores used: 32
Parallelization over k-points: 8
Domain decomposition: 1 x 1 x 4
                      2 x 2 x 8 (xc only)

Number of atoms: 66
Number of atomic orbitals: 966
Number of bands in calculation: 411
Number of valence electrons: 678
Bands to converge: occupied

... initialized

Initializing position-dependent things.

Density initialized from atomic densities
Creating initial wave functions:
  411 bands from LCAO basis set

                                              
                                              
                                              
                                              
                     Cl            Cl         
                                              
                 Cl    Cl                     
            Cl          CCl   Cu     Cu       
                   Cu     Cu    Cu            
               Cu    Cu     Cu                
                    Cu     Cu    Cu           
                Cu    Cu    Cu                
           Cu    Cu     Cu                    
                Cu     Cu    Cu               
            Cu    Cu     Cu                   
       Cu     Cu        Cu    Cu     Cu       
                   CCu    Cu    Cu            
               Cu    Cu     Cu                
                    Cu     Cu    Cu           
                Cu    Cu    Cu                
           Cu    Cu     Cu                    
                Cu     Cu    Cu               
            Cu    Cu     Cu                   
       Cu     Cu   CCu          Cl            
                     Cl     Cl                
                                              
         Cl            Cl                     
                                              
                                              
                                              
                                              

Positions:
   0 Cu     2.884162   -0.011729   10.033678    ( 0.0000,  0.0000,  0.0000)
   1 Cu     4.175487    2.207390    9.968025    ( 0.0000,  0.0000,  0.0000)
   2 Cu     0.268779    0.005327   10.035957    ( 0.0000,  0.0000,  0.0000)
   3 Cu     1.563079    2.250160   10.040939    ( 0.0000,  0.0000,  0.0000)
   4 Cu     2.905835    3.013667   12.132731    ( 0.0000,  0.0000,  0.0000)
   5 Cu     1.587256    0.751197   12.155983    ( 0.0000,  0.0000,  0.0000)
   6 Cu     5.501600    3.021336   12.124235    ( 0.0000,  0.0000,  0.0000)
   7 Cu     4.203724    0.772150   12.120007    ( 0.0000,  0.0000,  0.0000)
   8 Cu     5.509809    1.511263   14.273560    ( 0.0000,  0.0000,  0.0000)
   9 Cu     6.817749    3.779201   14.272965    ( 0.0000,  0.0000,  0.0000)
  10 Cu     2.895657    1.507106   14.282845    ( 0.0000,  0.0000,  0.0000)
  11 Cu     4.204745    3.779097   14.275593    ( 0.0000,  0.0000,  0.0000)
  12 Cu     2.898323   -0.006205   16.439255    ( 0.0000,  0.0000,  0.0000)
  13 Cu     4.202828    2.263486   16.411249    ( 0.0000,  0.0000,  0.0000)
  14 Cu     0.271173   -0.001683   16.415015    ( 0.0000,  0.0000,  0.0000)
  15 Cu     1.580207    2.267720   16.418056    ( 0.0000,  0.0000,  0.0000)
  16 Cu     2.898773    3.019517   18.534881    ( 0.0000,  0.0000,  0.0000)
  17 Cu     1.574509    0.759578   18.535562    ( 0.0000,  0.0000,  0.0000)
  18 Cu     5.517461    3.017381   18.557838    ( 0.0000,  0.0000,  0.0000)
  19 Cu     4.218777    0.769327   18.565915    ( 0.0000,  0.0000,  0.0000)
  20 Cu     5.482458    1.472743   20.721328    ( 0.0000,  0.0000,  0.0000)
  21 Cu     6.840691    3.826186   20.718062    ( 0.0000,  0.0000,  0.0000)
  22 Cu     2.872766    1.512688   20.651496    ( 0.0000,  0.0000,  0.0000)
  23 Cu     4.179191    3.794081   20.647081    ( 0.0000,  0.0000,  0.0000)
  24 Cu     5.533098    4.559222    9.954112    ( 0.0000,  0.0000,  0.0000)
  25 Cu     2.867968    4.534051   10.029210    ( 0.0000,  0.0000,  0.0000)
  26 Cu     4.213127    5.276205   12.126541    ( 0.0000,  0.0000,  0.0000)
  27 Cu     6.799507    5.268601   12.115394    ( 0.0000,  0.0000,  0.0000)
  28 Cu     8.121886    6.047639   14.244202    ( 0.0000,  0.0000,  0.0000)
  29 Cu     5.516666    6.046671   14.278211    ( 0.0000,  0.0000,  0.0000)
  30 Cu     5.511110    4.531825   16.410270    ( 0.0000,  0.0000,  0.0000)
  31 Cu     2.888634    4.532926   16.406558    ( 0.0000,  0.0000,  0.0000)
  32 Cu     4.204789    5.283723   18.534523    ( 0.0000,  0.0000,  0.0000)
  33 Cu     6.814487    5.265823   18.565627    ( 0.0000,  0.0000,  0.0000)
  34 Cu     8.131354    6.045561   20.650058    ( 0.0000,  0.0000,  0.0000)
  35 Cu     5.501317    6.065983   20.648502    ( 0.0000,  0.0000,  0.0000)
  36 Cu     5.515639   -0.030915   10.037620    ( 0.0000,  0.0000,  0.0000)
  37 Cu     6.838300    2.241957   10.038361    ( 0.0000,  0.0000,  0.0000)
  38 Cu     8.121401    3.021170   12.150082    ( 0.0000,  0.0000,  0.0000)
  39 Cu     6.815400    0.755845   12.149679    ( 0.0000,  0.0000,  0.0000)
  40 Cu     8.132578    1.510559   14.278234    ( 0.0000,  0.0000,  0.0000)
  41 Cu     9.440817    3.775125   14.268637    ( 0.0000,  0.0000,  0.0000)
  42 Cu     5.504098   -0.004613   16.403245    ( 0.0000,  0.0000,  0.0000)
  43 Cu     6.816730    2.264183   16.407976    ( 0.0000,  0.0000,  0.0000)
  44 Cu     8.113114    3.026556   18.553628    ( 0.0000,  0.0000,  0.0000)
  45 Cu     6.806143    0.763216   18.553497    ( 0.0000,  0.0000,  0.0000)
  46 Cu     8.148557    1.500971   20.654047    ( 0.0000,  0.0000,  0.0000)
  47 Cu     9.453486    3.785452   20.645604    ( 0.0000,  0.0000,  0.0000)
  48 Cu     8.143342    4.522704   10.030314    ( 0.0000,  0.0000,  0.0000)
  49 Cu     9.444142    5.279553   12.148158    ( 0.0000,  0.0000,  0.0000)
  50 Cu    10.750397    6.043904   14.266863    ( 0.0000,  0.0000,  0.0000)
  51 Cu     8.125450    4.536072   16.403731    ( 0.0000,  0.0000,  0.0000)
  52 Cu     9.432612    5.289470   18.528114    ( 0.0000,  0.0000,  0.0000)
  53 Cu    10.748665    6.030225   20.646267    ( 0.0000,  0.0000,  0.0000)
  54 Cl     6.147134    2.664301   22.667231    ( 0.0000,  0.0000,  0.0000)
  55 Cl     4.853098    3.366848    8.014863    ( 0.0000,  0.0000,  0.0000)
  56 Cl    10.101076    4.907838   23.055936    ( 0.0000,  0.0000,  0.0000)
  57 Cl     0.915929    1.127744    7.628448    ( 0.0000,  0.0000,  0.0000)
  58 Cl     8.857645    5.743262    7.623330    ( 0.0000,  0.0000,  0.0000)
  59 Cl     2.077612    0.292715   23.096412    ( 0.0000,  0.0000,  0.0000)
  60 Cl     4.840254    4.930032   23.057792    ( 0.0000,  0.0000,  0.0000)
  61 Cl     6.176970    1.105521    7.627990    ( 0.0000,  0.0000,  0.0000)
  62 Cl     3.525825    5.890548    7.624209    ( 0.0000,  0.0000,  0.0000)
  63 Cl     7.377612    0.192715   23.096412    ( 0.0000,  0.0000,  0.0000)
  64 Cl     3.535671    2.617828   22.668468    ( 0.0000,  0.0000,  0.0000)
  65 Cl     7.796854    2.949642    7.999351    ( 0.0000,  0.0000,  0.0000)

Unit cell:
           periodic     x           y           z      points  spacing
  1. axis:    yes    7.851007    0.000000    0.000000    45     0.1511
  2. axis:    yes    3.925503    6.799171    0.000000    45     0.1511
  3. axis:    yes    0.000000    0.000000   30.683867   175     0.1753

  Lengths:   7.851007   7.851006  30.683867
  Angles:   90.000000  90.000000  60.000001

Effective grid spacing dv^(1/3) = 0.1666

     iter     time        total  log10-change:
                         energy  eigst   dens
iter:   1 13:25:17 -5155.244350
iter:   2 13:26:17 -5216.406884  +1.61  -0.64
iter:   3 13:27:26 -4869.818524  +1.30  -0.67
iter:   4 13:28:17 -4732.266831  +0.14  -0.85
iter:   5 13:29:08 -4751.525247  -0.18  -1.07
iter:   6 13:30:02 -4551.599536  -1.05  -1.04
iter:   7 13:30:47 -4527.637476  -1.56  -1.44
iter:   8 13:31:32 -4524.320088  -1.77  -1.51
iter:   9 13:32:18 -4521.023095  -2.95  -1.47
iter:  10 13:33:04 -4526.664648  -2.68  -1.50
iter:  11 13:33:53 -4518.836752  -2.77  -1.49
iter:  12 13:34:45 -4530.532403  -1.88  -1.54
iter:  13 13:35:39 -4520.583778  -2.85  -1.48
iter:  14 13:36:32 -4514.465259  -2.39  -1.60
iter:  15 13:37:20 -4512.860451  -2.68  -1.63
iter:  16 13:38:05 -4512.293494  -2.62  -1.70
iter:  17 13:38:50 -4516.899422  -2.80  -1.75
iter:  18 13:39:37 -4515.883026  -3.23  -1.65
iter:  19 13:40:28 -4515.467011  -2.18  -1.70
iter:  20 13:41:19 -4512.114710  -3.29  -1.76
iter:  21 13:42:10 -4511.913004  -3.65  -2.01
iter:  22 13:43:00 -4511.948919c -3.01  -2.10
iter:  23 13:43:50 -4511.802320c -4.06  -2.23
iter:  24 13:44:40 -4511.630719c -3.63  -2.29
iter:  25 13:45:30 -4511.889013c -3.84  -2.44
iter:  26 13:46:20 -4511.597249c -4.21  -2.29
iter:  27 13:47:15 -4511.690733c -4.07  -2.63
iter:  28 13:48:12 -4511.578499c -4.41  -2.50
iter:  29 13:49:03 -4511.579499c -4.33  -2.78
iter:  30 13:49:55 -4511.561384c -4.48  -2.80
iter:  31 13:50:46 -4511.556337c -4.74  -3.02
iter:  32 13:51:44 -4511.555793c -6.02  -3.13
iter:  33 13:52:41 -4511.551517c -5.20  -3.14
iter:  34 13:53:39 -4511.551808c -4.98  -3.17
iter:  35 13:54:31 -4511.551193c -5.97  -3.45
iter:  36 13:55:26 -4511.551297c -5.52  -3.48
iter:  37 13:56:25 -4511.551181c -6.64  -3.58
iter:  38 13:57:15 -4511.551143c -7.18  -3.57
iter:  39 13:58:16 -4511.551645c -5.72  -3.67
iter:  40 13:59:16 -4511.551535c -7.02  -3.87
iter:  41 14:00:18 -4511.551360c -7.00  -3.94
iter:  42 14:01:13 -4511.551201c -6.69  -4.12c
iter:  43 14:02:06 -4511.551158c -7.65c -4.41c

Converged after 43 iterations.

Dipole moment: (-21.435320, -20.683531, -0.207279) |e|*Ang

Energy contributions relative to reference atoms: (reference = -2581817.792169)

Kinetic:       +550.704250
Potential:     -560.440437
External:        +0.000000
XC:            -4500.679738
Entropy (-ST):   -0.862638
Local:           -0.703914
--------------------------
Free energy:   -4511.982477
Extrapolated:  -4511.551158

Showing only first 2 kpts
 Kpt  Band  Eigenvalues  Occupancy
  0   337      0.77151    1.64790
  0   338      0.84151    1.39834
  0   339      0.90260    1.11570
  0   340      0.94782    0.89056

  1   337      0.75584    1.69108
  1   338      0.77411    1.64030
  1   339      0.90278    1.11481
  1   340      0.97550    0.75670


Fermi level: 0.92584

No gap

Forces in eV/Ang:
  0 Cu    0.03558   -0.01284    0.04299
  1 Cu   -0.11356    0.15512    0.16228
  2 Cu    0.16604   -0.33361    0.16467
  3 Cu    0.44987   -0.01135    0.24150
  4 Cu   -0.06619    0.01821   -0.10696
  5 Cu   -0.05852    0.01165   -0.08723
  6 Cu    0.05039   -0.01149   -0.01633
  7 Cu    0.02913   -0.04096   -0.02559
  8 Cu    0.01968   -0.00869    0.02204
  9 Cu    0.01105    0.00006    0.01182
 10 Cu   -0.00213   -0.00772   -0.02807
 11 Cu   -0.00199   -0.00782   -0.04119
 12 Cu   -0.00593    0.00496   -0.04543
 13 Cu   -0.01147   -0.00287   -0.00788
 14 Cu    0.02183   -0.00587   -0.01276
 15 Cu    0.00170   -0.01166   -0.04969
 16 Cu   -0.02451    0.02374   -0.01994
 17 Cu    0.06132    0.00151    0.10522
 18 Cu   -0.04859    0.01804    0.00526
 19 Cu   -0.03427   -0.02207    0.04315
 20 Cu    0.10733   -0.02266   -0.18577
 21 Cu    0.12050   -0.19048   -0.05843
 22 Cu   -0.01951   -0.14027    0.16673
 23 Cu    0.17079    0.11420   -0.14339
 24 Cu   -0.01420   -0.01644    0.15951
 25 Cu    0.14390   -0.10639   -0.01794
 26 Cu   -0.01378    0.04093   -0.01272
 27 Cu    0.03799   -0.00643   -0.06539
 28 Cu    0.00036   -0.00806    0.03343
 29 Cu    0.01381   -0.00243   -0.01331
 30 Cu   -0.01705    0.01311   -0.01938
 31 Cu    0.01679    0.00133   -0.04230
 32 Cu   -0.03193   -0.02266    0.15164
 33 Cu   -0.01260    0.04683    0.03900
 34 Cu   -0.00130   -0.05686    0.01491
 35 Cu    0.19618   -0.07917    0.13118
 36 Cu   -0.20565    0.08367   -0.12690
 37 Cu   -0.36623   -0.03106    0.57337
 38 Cu    0.00270   -0.00477    0.01649
 39 Cu    0.01088    0.00897   -0.15058
 40 Cu   -0.01591   -0.00511    0.01693
 41 Cu   -0.01236    0.00395    0.03607
 42 Cu   -0.01686    0.00274   -0.01110
 43 Cu    0.01058    0.00105    0.04881
 44 Cu    0.08646   -0.00082    0.10296
 45 Cu   -0.00775   -0.06459    0.04051
 46 Cu   -0.15651    0.11490    0.05335
 47 Cu   -0.25729    0.11936    0.23104
 48 Cu   -0.00602    0.24914   -0.20852
 49 Cu   -0.02616    0.01271   -0.05810
 50 Cu   -0.01515    0.01122    0.02932
 51 Cu   -0.00437    0.00320    0.01500
 52 Cu    0.05702   -0.01196    0.06070
 53 Cu   -0.19900    0.17619    0.11356
 54 Cl    2.52200   -0.23318   -0.21565
 55 Cl   -0.77501    0.35102    0.00096
 56 Cl   -3.60505   -0.30821   -0.33769
 57 Cl    3.53839   -1.03805   -0.67227
 58 Cl   -2.96468   -1.41127    0.55063
 59 Cl    2.38104    0.74465   -0.24042
 60 Cl    1.69035   -0.45755    0.24184
 61 Cl   -2.52565    0.60890   -0.66653
 62 Cl    1.70807   -3.17452   -0.13702
 63 Cl   -1.52756    1.65559    0.07874
 64 Cl   -1.45911   -1.42232   -0.18122
 65 Cl    1.00725    4.70763    0.28855

System changes: positions 

Initializing position-dependent things.

Density initialized from wave functions
                                              
                                              
                                              
                                              
                      Cl          Cl          
                                              
                 Cl     Cl                    
            Cl          CCl   Cu     Cu       
                   Cu     Cu    Cu            
               Cu    Cu     Cu                
                    Cu     Cu    Cu           
                Cu    Cu    Cu                
           Cu    Cu     Cu                    
                Cu     Cu    Cu               
            Cu    Cu     Cu                   
       Cu     Cu        Cu    Cu     Cu       
                   CCu    Cu    Cu            
               Cu    Cu     Cu                
                    Cu     Cu    Cu           
                Cu    Cu    Cu                
           Cu    Cu     Cu                    
                Cu     Cu    Cu               
            Cu    Cu     Cu                   
       Cu     Cu   CCu          Cl            
                     Cl     Cl                
                                              
          Cl          Cl                      
                                              
                                              
                                              
                                              

Positions:
   0 Cu     2.885637   -0.012261   10.035461    ( 0.0000,  0.0000,  0.0000)
   1 Cu     4.170778    2.213823    9.974755    ( 0.0000,  0.0000,  0.0000)
   2 Cu     0.275665   -0.008508   10.042786    ( 0.0000,  0.0000,  0.0000)
   3 Cu     1.581735    2.249689   10.050954    ( 0.0000,  0.0000,  0.0000)
   4 Cu     2.903090    3.014422   12.128296    ( 0.0000,  0.0000,  0.0000)
   5 Cu     1.584829    0.751680   12.152366    ( 0.0000,  0.0000,  0.0000)
   6 Cu     5.503690    3.020860   12.123558    ( 0.0000,  0.0000,  0.0000)
   7 Cu     4.204932    0.770451   12.118946    ( 0.0000,  0.0000,  0.0000)
   8 Cu     5.510625    1.510903   14.274474    ( 0.0000,  0.0000,  0.0000)
   9 Cu     6.818207    3.779204   14.273455    ( 0.0000,  0.0000,  0.0000)
  10 Cu     2.895569    1.506786   14.281681    ( 0.0000,  0.0000,  0.0000)
  11 Cu     4.204662    3.778773   14.273885    ( 0.0000,  0.0000,  0.0000)
  12 Cu     2.898077   -0.005999   16.437371    ( 0.0000,  0.0000,  0.0000)
  13 Cu     4.202352    2.263367   16.410922    ( 0.0000,  0.0000,  0.0000)
  14 Cu     0.272078   -0.001926   16.414486    ( 0.0000,  0.0000,  0.0000)
  15 Cu     1.580277    2.267236   16.415996    ( 0.0000,  0.0000,  0.0000)
  16 Cu     2.897756    3.020501   18.534054    ( 0.0000,  0.0000,  0.0000)
  17 Cu     1.577052    0.759640   18.539925    ( 0.0000,  0.0000,  0.0000)
  18 Cu     5.515446    3.018129   18.558056    ( 0.0000,  0.0000,  0.0000)
  19 Cu     4.217356    0.768412   18.567704    ( 0.0000,  0.0000,  0.0000)
  20 Cu     5.486909    1.471803   20.713624    ( 0.0000,  0.0000,  0.0000)
  21 Cu     6.845688    3.818287   20.715639    ( 0.0000,  0.0000,  0.0000)
  22 Cu     2.871957    1.506871   20.658410    ( 0.0000,  0.0000,  0.0000)
  23 Cu     4.186274    3.798817   20.641135    ( 0.0000,  0.0000,  0.0000)
  24 Cu     5.532509    4.558540    9.960727    ( 0.0000,  0.0000,  0.0000)
  25 Cu     2.873935    4.529639   10.028466    ( 0.0000,  0.0000,  0.0000)
  26 Cu     4.212556    5.277902   12.126013    ( 0.0000,  0.0000,  0.0000)
  27 Cu     6.801082    5.268334   12.112682    ( 0.0000,  0.0000,  0.0000)
  28 Cu     8.121901    6.047305   14.245588    ( 0.0000,  0.0000,  0.0000)
  29 Cu     5.517239    6.046570   14.277659    ( 0.0000,  0.0000,  0.0000)
  30 Cu     5.510403    4.532369   16.409466    ( 0.0000,  0.0000,  0.0000)
  31 Cu     2.889330    4.532981   16.404804    ( 0.0000,  0.0000,  0.0000)
  32 Cu     4.203465    5.282783   18.540811    ( 0.0000,  0.0000,  0.0000)
  33 Cu     6.813965    5.267765   18.567245    ( 0.0000,  0.0000,  0.0000)
  34 Cu     8.131300    6.043203   20.650676    ( 0.0000,  0.0000,  0.0000)
  35 Cu     5.509453    6.062700   20.653942    ( 0.0000,  0.0000,  0.0000)
  36 Cu     5.507111   -0.027445   10.032358    ( 0.0000,  0.0000,  0.0000)
  37 Cu     6.823113    2.240669   10.062139    ( 0.0000,  0.0000,  0.0000)
  38 Cu     8.121513    3.020972   12.150766    ( 0.0000,  0.0000,  0.0000)
  39 Cu     6.815851    0.756217   12.143435    ( 0.0000,  0.0000,  0.0000)
  40 Cu     8.131918    1.510347   14.278936    ( 0.0000,  0.0000,  0.0000)
  41 Cu     9.440304    3.775289   14.270133    ( 0.0000,  0.0000,  0.0000)
  42 Cu     5.503399   -0.004499   16.402785    ( 0.0000,  0.0000,  0.0000)
  43 Cu     6.817169    2.264227   16.410000    ( 0.0000,  0.0000,  0.0000)
  44 Cu     8.116699    3.026522   18.557898    ( 0.0000,  0.0000,  0.0000)
  45 Cu     6.805822    0.760537   18.555177    ( 0.0000,  0.0000,  0.0000)
  46 Cu     8.142067    1.505736   20.656259    ( 0.0000,  0.0000,  0.0000)
  47 Cu     9.442816    3.790402   20.655185    ( 0.0000,  0.0000,  0.0000)
  48 Cu     8.143092    4.533036   10.021667    ( 0.0000,  0.0000,  0.0000)
  49 Cu     9.443057    5.280080   12.145749    ( 0.0000,  0.0000,  0.0000)
  50 Cu    10.749769    6.044369   14.268079    ( 0.0000,  0.0000,  0.0000)
  51 Cu     8.125269    4.536205   16.404353    ( 0.0000,  0.0000,  0.0000)
  52 Cu     9.434977    5.288974   18.530631    ( 0.0000,  0.0000,  0.0000)
  53 Cu    10.740413    6.037532   20.650976    ( 0.0000,  0.0000,  0.0000)
  54 Cl     6.251720    2.654631   22.658288    ( 0.0000,  0.0000,  0.0000)
  55 Cl     4.820959    3.381405    8.014903    ( 0.0000,  0.0000,  0.0000)
  56 Cl     9.951576    4.895057   23.041932    ( 0.0000,  0.0000,  0.0000)
  57 Cl     1.062664    1.084696    7.600569    ( 0.0000,  0.0000,  0.0000)
  58 Cl     8.734701    5.684737    7.646165    ( 0.0000,  0.0000,  0.0000)
  59 Cl     2.176353    0.323596   23.086442    ( 0.0000,  0.0000,  0.0000)
  60 Cl     4.910352    4.911058   23.067821    ( 0.0000,  0.0000,  0.0000)
  61 Cl     6.072232    1.130772    7.600350    ( 0.0000,  0.0000,  0.0000)
  62 Cl     3.596658    5.758903    7.618527    ( 0.0000,  0.0000,  0.0000)
  63 Cl     7.314265    0.261372   23.099677    ( 0.0000,  0.0000,  0.0000)
  64 Cl     3.475162    2.558845   22.660953    ( 0.0000,  0.0000,  0.0000)
  65 Cl     7.838624    3.144865    8.011317    ( 0.0000,  0.0000,  0.0000)

Unit cell:
           periodic     x           y           z      points  spacing
  1. axis:    yes    7.851007    0.000000    0.000000    45     0.1511
  2. axis:    yes    3.925503    6.799171    0.000000    45     0.1511
  3. axis:    yes    0.000000    0.000000   30.683867   175     0.1753

  Lengths:   7.851007   7.851006  30.683867
  Angles:   90.000000  90.000000  60.000001

Effective grid spacing dv^(1/3) = 0.1666

     iter     time        total  log10-change:
                         energy  eigst   dens
iter:   1 14:03:29 -4518.019338  -1.66
iter:   2 14:04:22 -4528.605166  -1.96  -1.92
iter:   3 14:05:07 -4518.120344  -2.14  -1.64
iter:   4 14:05:51 -4515.717914  -3.37  -1.96
iter:   5 14:06:44 -4515.507453  -4.18  -2.26
iter:   6 14:07:35 -4515.260944  -3.28  -2.31
iter:   7 14:08:28 -4515.273295c -4.02  -2.40
iter:   8 14:09:24 -4515.213807c -3.61  -2.40
iter:   9 14:10:11 -4515.051074c -4.69  -2.47
iter:  10 14:11:00 -4515.278206c -3.98  -2.71
iter:  11 14:11:50 -4515.018910c -3.95  -2.37
iter:  12 14:12:51 -4515.019875c -4.37  -2.99
iter:  13 14:13:42 -4515.018435c -4.97  -3.05
iter:  14 14:14:32 -4515.008647c -5.21  -3.04
iter:  15 14:15:21 -4515.010002c -5.57  -3.35
iter:  16 14:16:10 -4515.008050c -5.98  -3.43
iter:  17 14:17:02 -4515.008903c -5.51  -3.60
iter:  18 14:18:02 -4515.007894c -6.23  -3.69
iter:  19 14:19:02 -4515.008253c -6.28  -3.77
iter:  20 14:19:57 -4515.008147c -6.91  -3.98
iter:  21 14:20:54 -4515.008027c -7.07  -4.10c
iter:  22 14:21:52 -4515.008341c -7.20  -4.08c
iter:  23 14:22:51 -4515.008137c -7.36  -4.18c
iter:  24 14:23:40 -4515.008203c -7.62c -4.30c

Converged after 24 iterations.

Dipole moment: (-33.499624, -22.220278, -0.077261) |e|*Ang

Energy contributions relative to reference atoms: (reference = -2581817.792169)

Kinetic:       +528.908375
Potential:     -546.113034
External:        +0.000000
XC:            -4496.624050
Entropy (-ST):   -0.865543
Local:           -0.746723
--------------------------
Free energy:   -4515.440974
Extrapolated:  -4515.008203

Showing only first 2 kpts
 Kpt  Band  Eigenvalues  Occupancy
  0   337      0.61139    1.56542
  0   338      0.66571    1.35325
  0   339      0.70359    1.17787
  0   340      0.75865    0.90474

  1   337      0.52136    1.79720
  1   338      0.55827    1.71937
  1   339      0.73241    1.03562
  1   340      0.76630    0.86701


Fermi level: 0.73954

No gap

Forces in eV/Ang:
  0 Cu   -0.01154    0.03687   -0.07769
  1 Cu   -0.04298    0.15086    0.09733
  2 Cu    0.09508   -0.12961   -0.25616
  3 Cu    0.14293   -0.10147   -0.18156
  4 Cu   -0.06116    0.02035   -0.05697
  5 Cu   -0.04034    0.00168   -0.04468
  6 Cu    0.01775    0.00400    0.03852
  7 Cu    0.01469   -0.03588   -0.01357
  8 Cu    0.00892   -0.00875    0.00816
  9 Cu    0.00806    0.00312    0.00640
 10 Cu    0.00249   -0.00354   -0.04000
 11 Cu   -0.00461   -0.01016   -0.04789
 12 Cu   -0.00875    0.00699   -0.02626
 13 Cu   -0.01198   -0.00477    0.00384
 14 Cu    0.01817   -0.00473    0.00834
 15 Cu    0.00329   -0.01367   -0.03172
 16 Cu   -0.04324    0.01557    0.01887
 17 Cu    0.04188    0.00191    0.10273
 18 Cu   -0.02629    0.01087   -0.00942
 19 Cu   -0.03036   -0.02538    0.03313
 20 Cu    0.03609    0.05567   -0.10289
 21 Cu    0.06651   -0.11931   -0.11007
 22 Cu   -0.01936   -0.12230    0.05437
 23 Cu    0.10981    0.08010    0.09506
 24 Cu   -0.01823   -0.06736    0.12924
 25 Cu    0.13926    0.01559   -0.13563
 26 Cu   -0.00537    0.03388    0.01476
 27 Cu    0.03520    0.00594   -0.04119
 28 Cu    0.00343   -0.00482    0.02473
 29 Cu    0.00982   -0.00154   -0.01402
 30 Cu   -0.01194    0.01114   -0.00436
 31 Cu    0.01275    0.00318   -0.02159
 32 Cu   -0.02608    0.00871    0.10722
 33 Cu   -0.00587    0.03145    0.03111
 34 Cu    0.02112   -0.05829    0.09041
 35 Cu    0.09825   -0.07237    0.23727
 36 Cu   -0.08682    0.08960   -0.28107
 37 Cu   -0.10733   -0.03767   -0.03302
 38 Cu    0.02647    0.00991    0.01261
 39 Cu    0.00988   -0.02271   -0.07963
 40 Cu   -0.00939   -0.00781    0.00901
 41 Cu   -0.00761    0.00491    0.02636
 42 Cu   -0.01057    0.00272    0.00245
 43 Cu    0.00898    0.00168    0.05166
 44 Cu    0.08471   -0.00087    0.07157
 45 Cu    0.00299   -0.05530    0.01973
 46 Cu   -0.11861    0.00153    0.12495
 47 Cu   -0.11831    0.14640    0.36880
 48 Cu   -0.02310    0.12144   -0.24027
 49 Cu   -0.03167    0.00532   -0.07265
 50 Cu   -0.01458    0.00865    0.00680
 51 Cu   -0.00583    0.00038    0.03025
 52 Cu    0.04380   -0.01378    0.05109
 53 Cu   -0.12062    0.11781    0.33458
 54 Cl    1.64508    0.06636   -0.14593
 55 Cl   -0.73911    0.12946    0.07596
 56 Cl   -2.68683   -0.26245   -0.68808
 57 Cl    2.56094   -0.57537    0.06830
 58 Cl   -1.89791   -0.20702    0.51965
 59 Cl    1.52732   -0.02806   -0.25432
 60 Cl    0.84812    0.02252    0.02773
 61 Cl   -1.02161   -0.10972   -0.14873
 62 Cl    0.62858   -1.46733    0.21887
 63 Cl   -0.89414    1.03054   -0.17046
 64 Cl   -0.46201   -0.84685   -0.21582
 65 Cl    0.42730    2.14136    0.44883

System changes: positions 

Initializing position-dependent things.

Density initialized from wave functions
                                              
                                              
                                              
                                              
                      Cl          Cl          
                                              
                Cl      Cl                    
            Cl          CCl   Cu     Cu       
                   Cu     Cu    Cu            
               Cu    Cu     Cu                
                    Cu     Cu    Cu           
                Cu    Cu    Cu                
           Cu    Cu     Cu                    
                Cu     Cu    Cu               
            Cu    Cu     Cu                   
       Cu     Cu    Cu  Cu    Cu     Cu       
                   Cu     Cu    Cu            
               Cu    Cu     Cu                
                    Cu     Cu    Cu           
                Cu    Cu    Cu                
           Cu    Cu     Cu                    
                Cu     Cu    Cu               
            Cu    Cu     Cu                   
       Cu     Cu   CCu         Cl             
                    Cl      Cl                
                                              
          Cl          Cl                      
                                              
                                              
                                              
                                              

Positions:
   0 Cu     2.887113   -0.012794   10.037244    ( 0.0000,  0.0000,  0.0000)
   1 Cu     4.166068    2.220256    9.981485    ( 0.0000,  0.0000,  0.0000)
   2 Cu     0.282551   -0.022342   10.049615    ( 0.0000,  0.0000,  0.0000)
   3 Cu     1.600391    2.249218   10.060968    ( 0.0000,  0.0000,  0.0000)
   4 Cu     2.900345    3.015177   12.123860    ( 0.0000,  0.0000,  0.0000)
   5 Cu     1.582403    0.752163   12.148748    ( 0.0000,  0.0000,  0.0000)
   6 Cu     5.505779    3.020383   12.122880    ( 0.0000,  0.0000,  0.0000)
   7 Cu     4.206140    0.768753   12.117885    ( 0.0000,  0.0000,  0.0000)
   8 Cu     5.511441    1.510543   14.275388    ( 0.0000,  0.0000,  0.0000)
   9 Cu     6.818665    3.779206   14.273945    ( 0.0000,  0.0000,  0.0000)
  10 Cu     2.895481    1.506466   14.280517    ( 0.0000,  0.0000,  0.0000)
  11 Cu     4.204580    3.778448   14.272177    ( 0.0000,  0.0000,  0.0000)
  12 Cu     2.897831   -0.005794   16.435487    ( 0.0000,  0.0000,  0.0000)
  13 Cu     4.201877    2.263248   16.410595    ( 0.0000,  0.0000,  0.0000)
  14 Cu     0.272984   -0.002170   16.413956    ( 0.0000,  0.0000,  0.0000)
  15 Cu     1.580348    2.266753   16.413935    ( 0.0000,  0.0000,  0.0000)
  16 Cu     2.896740    3.021486   18.533227    ( 0.0000,  0.0000,  0.0000)
  17 Cu     1.579595    0.759703   18.544289    ( 0.0000,  0.0000,  0.0000)
  18 Cu     5.513431    3.018877   18.558274    ( 0.0000,  0.0000,  0.0000)
  19 Cu     4.215935    0.767497   18.569494    ( 0.0000,  0.0000,  0.0000)
  20 Cu     5.491360    1.470864   20.705920    ( 0.0000,  0.0000,  0.0000)
  21 Cu     6.850685    3.810387   20.713216    ( 0.0000,  0.0000,  0.0000)
  22 Cu     2.871148    1.501054   20.665325    ( 0.0000,  0.0000,  0.0000)
  23 Cu     4.193356    3.803553   20.635188    ( 0.0000,  0.0000,  0.0000)
  24 Cu     5.531920    4.557858    9.967342    ( 0.0000,  0.0000,  0.0000)
  25 Cu     2.879903    4.525227   10.027722    ( 0.0000,  0.0000,  0.0000)
  26 Cu     4.211984    5.279599   12.125486    ( 0.0000,  0.0000,  0.0000)
  27 Cu     6.802658    5.268068   12.109971    ( 0.0000,  0.0000,  0.0000)
  28 Cu     8.121916    6.046970   14.246975    ( 0.0000,  0.0000,  0.0000)
  29 Cu     5.517812    6.046470   14.277107    ( 0.0000,  0.0000,  0.0000)
  30 Cu     5.509696    4.532912   16.408662    ( 0.0000,  0.0000,  0.0000)
  31 Cu     2.890027    4.533036   16.403050    ( 0.0000,  0.0000,  0.0000)
  32 Cu     4.202141    5.281844   18.547100    ( 0.0000,  0.0000,  0.0000)
  33 Cu     6.813442    5.269707   18.568862    ( 0.0000,  0.0000,  0.0000)
  34 Cu     8.131246    6.040845   20.651295    ( 0.0000,  0.0000,  0.0000)
  35 Cu     5.517588    6.059417   20.659382    ( 0.0000,  0.0000,  0.0000)
  36 Cu     5.498582   -0.023976   10.027095    ( 0.0000,  0.0000,  0.0000)
  37 Cu     6.807925    2.239381   10.085916    ( 0.0000,  0.0000,  0.0000)
  38 Cu     8.121625    3.020774   12.151450    ( 0.0000,  0.0000,  0.0000)
  39 Cu     6.816303    0.756589   12.137190    ( 0.0000,  0.0000,  0.0000)
  40 Cu     8.131259    1.510135   14.279638    ( 0.0000,  0.0000,  0.0000)
  41 Cu     9.439792    3.775452   14.271628    ( 0.0000,  0.0000,  0.0000)
  42 Cu     5.502700   -0.004386   16.402325    ( 0.0000,  0.0000,  0.0000)
  43 Cu     6.817608    2.264270   16.412024    ( 0.0000,  0.0000,  0.0000)
  44 Cu     8.120285    3.026488   18.562167    ( 0.0000,  0.0000,  0.0000)
  45 Cu     6.805500    0.757859   18.556857    ( 0.0000,  0.0000,  0.0000)
  46 Cu     8.135576    1.510501   20.658472    ( 0.0000,  0.0000,  0.0000)
  47 Cu     9.432147    3.795351   20.664767    ( 0.0000,  0.0000,  0.0000)
  48 Cu     8.142843    4.543368   10.013019    ( 0.0000,  0.0000,  0.0000)
  49 Cu     9.441972    5.280608   12.143339    ( 0.0000,  0.0000,  0.0000)
  50 Cu    10.749141    6.044834   14.269295    ( 0.0000,  0.0000,  0.0000)
  51 Cu     8.125088    4.536338   16.404975    ( 0.0000,  0.0000,  0.0000)
  52 Cu     9.437341    5.288478   18.533148    ( 0.0000,  0.0000,  0.0000)
  53 Cu    10.732160    6.044838   20.655685    ( 0.0000,  0.0000,  0.0000)
  54 Cl     6.356306    2.644961   22.649345    ( 0.0000,  0.0000,  0.0000)
  55 Cl     4.788820    3.395962    8.014943    ( 0.0000,  0.0000,  0.0000)
  56 Cl     9.802076    4.882276   23.027928    ( 0.0000,  0.0000,  0.0000)
  57 Cl     1.209400    1.041648    7.572691    ( 0.0000,  0.0000,  0.0000)
  58 Cl     8.611757    5.626213    7.668999    ( 0.0000,  0.0000,  0.0000)
  59 Cl     2.275094    0.354476   23.076472    ( 0.0000,  0.0000,  0.0000)
  60 Cl     4.980450    4.892084   23.077850    ( 0.0000,  0.0000,  0.0000)
  61 Cl     5.967495    1.156023    7.572709    ( 0.0000,  0.0000,  0.0000)
  62 Cl     3.667491    5.627257    7.612845    ( 0.0000,  0.0000,  0.0000)
  63 Cl     7.250918    0.330028   23.102943    ( 0.0000,  0.0000,  0.0000)
  64 Cl     3.414654    2.499863   22.653438    ( 0.0000,  0.0000,  0.0000)
  65 Cl     7.880394    3.340088    8.023283    ( 0.0000,  0.0000,  0.0000)

Unit cell:
           periodic     x           y           z      points  spacing
  1. axis:    yes    7.851007    0.000000    0.000000    45     0.1511
  2. axis:    yes    3.925503    6.799171    0.000000    45     0.1511
  3. axis:    yes    0.000000    0.000000   30.683867   175     0.1753

  Lengths:   7.851007   7.851006  30.683867
  Angles:   90.000000  90.000000  60.000001

Effective grid spacing dv^(1/3) = 0.1666

     iter     time        total  log10-change:
                         energy  eigst   dens
iter:   1 14:24:58 -4519.092440  -1.79
iter:   2 14:25:57 -4520.894156  -2.06  -1.92
iter:   3 14:26:54 -4517.915641  -2.62  -1.91
iter:   4 14:27:48 -4517.096555  -3.28  -2.14
iter:   5 14:28:46 -4516.967757  -4.53  -2.38
iter:   6 14:29:32 -4516.813760c -3.76  -2.46
iter:   7 14:30:16 -4516.783206c -4.08  -2.63
iter:   8 14:31:01 -4516.793726c -4.38  -2.77
iter:   9 14:31:48 -4516.844642c -4.12  -2.77
iter:  10 14:32:33 -4516.796185c -4.50  -2.62
iter:  11 14:33:23 -4516.772381c -4.39  -2.79
iter:  12 14:34:17 -4516.756674c -5.50  -3.06
iter:  13 14:35:19 -4516.756712c -5.85  -3.32
iter:  14 14:36:28 -4516.755556c -5.89  -3.38
iter:  15 14:37:42 -4516.756049c -5.57  -3.48
iter:  16 14:38:36 -4516.755477c -5.66  -3.67
iter:  17 14:39:25 -4516.755740c -6.30  -3.86
iter:  18 14:40:15 -4516.755294c -6.29  -3.88
iter:  19 14:41:02 -4516.755394c -6.95  -4.01c
iter:  20 14:41:57 -4516.755646c -7.22  -4.09c
iter:  21 14:42:46 -4516.755423c -7.20  -4.17c
iter:  22 14:43:35 -4516.755500c -7.64c -4.32c

Converged after 22 iterations.

Dipole moment: (-34.210273, -21.853856, -0.033309) |e|*Ang

Energy contributions relative to reference atoms: (reference = -2581817.792169)

Kinetic:       +517.301568
Potential:     -538.132521
External:        +0.000000
XC:            -4494.826199
Entropy (-ST):   -0.805985
Local:           -0.695356
--------------------------
Free energy:   -4517.158493
Extrapolated:  -4516.755500

Showing only first 2 kpts
 Kpt  Band  Eigenvalues  Occupancy
  0   337      0.58163    1.44318
  0   338      0.62436    1.25666
  0   339      0.66407    1.06391
  0   340      0.69552    0.90700

  1   337      0.32338    1.94333
  1   338      0.39198    1.89053
  1   339      0.69071    0.93091
  1   340      0.75139    0.64371


Fermi level: 0.67687

No gap

Forces in eV/Ang:
  0 Cu   -0.09096    0.09934   -0.18173
  1 Cu    0.00579    0.09877    0.10076
  2 Cu    0.06309    0.04418   -0.50134
  3 Cu   -0.06646   -0.18647   -0.44790
  4 Cu   -0.04248    0.02890    0.00571
  5 Cu   -0.02359   -0.00743    0.00810
  6 Cu   -0.02302    0.02537    0.09410
  7 Cu   -0.00061   -0.02786   -0.00298
  8 Cu    0.00349   -0.00856   -0.00593
  9 Cu    0.00488    0.00381    0.00302
 10 Cu    0.00570    0.00112   -0.04891
 11 Cu   -0.00613   -0.00988   -0.04721
 12 Cu   -0.01118    0.00911   -0.01329
 13 Cu   -0.01036   -0.00446    0.00979
 14 Cu    0.01416   -0.00381    0.02330
 15 Cu    0.00324   -0.01582   -0.01700
 16 Cu   -0.05591    0.01141    0.05081
 17 Cu    0.02162    0.00144    0.10450
 18 Cu   -0.00423    0.00299   -0.02014
 19 Cu   -0.02825   -0.02845    0.02756
 20 Cu   -0.01626    0.09945   -0.08759
 21 Cu    0.02329   -0.02250   -0.20075
 22 Cu   -0.03584   -0.12494   -0.20427
 23 Cu    0.06268    0.06559    0.21775
 24 Cu   -0.01581   -0.08073    0.18256
 25 Cu    0.11477    0.10796   -0.16022
 26 Cu   -0.00346    0.01716    0.04474
 27 Cu    0.03311    0.01656   -0.02586
 28 Cu    0.00606   -0.00364    0.01949
 29 Cu    0.00602   -0.00376   -0.01512
 30 Cu   -0.00958    0.00793    0.01017
 31 Cu    0.01140    0.00555   -0.00675
 32 Cu   -0.02214    0.03798    0.06354
 33 Cu    0.00264    0.01637    0.02258
 34 Cu    0.05407   -0.06503    0.16041
 35 Cu    0.01110   -0.08050    0.26490
 36 Cu    0.02206    0.12486   -0.27019
 37 Cu    0.06092   -0.06810   -0.30141
 38 Cu    0.04627    0.02089    0.01410
 39 Cu    0.01185   -0.05910   -0.00379
 40 Cu   -0.00814   -0.00946    0.00458
 41 Cu   -0.00281    0.00628    0.01723
 42 Cu   -0.00456    0.00364    0.01494
 43 Cu    0.00645    0.00153    0.05197
 44 Cu    0.07825   -0.00290    0.03795
 45 Cu    0.01606   -0.04184   -0.00211
 46 Cu   -0.06936   -0.08411    0.12422
 47 Cu   -0.01085    0.16603    0.46049
 48 Cu   -0.01620    0.07846    0.13661
 49 Cu   -0.02953   -0.00089   -0.08703
 50 Cu   -0.01346    0.00613   -0.01216
 51 Cu   -0.00673   -0.00230    0.04098
 52 Cu    0.03015   -0.01731    0.04103
 53 Cu   -0.05942    0.06377    0.44772
 54 Cl    0.98078    0.29867    0.03086
 55 Cl   -0.57612   -0.12437   -0.08281
 56 Cl   -2.04532   -0.28240   -0.97916
 57 Cl    1.84553    0.07171    0.70200
 58 Cl   -0.96500    0.96126    0.13539
 59 Cl    0.80138   -0.67305   -0.11253
 60 Cl    0.31227    0.31928   -0.12342
 61 Cl   -0.25913   -0.63135    0.12351
 62 Cl   -0.17352   -0.59293    0.40650
 63 Cl   -0.30974    0.47361   -0.28480
 64 Cl    0.25524   -0.15366   -0.01685
 65 Cl    0.07206    0.10970    0.07181

System changes: positions 

Initializing position-dependent things.

Density initialized from wave functions
                                              
                                              
                                              
                                              
                      Cl                      
                                 Cl           
                Cl      Cl                    
             Cl         CCl   Cu     Cu       
                   Cu     Cu    Cu            
               Cu    Cu     Cu                
                    Cu     Cu    Cu           
               Cu     Cu     Cu               
           Cu    Cu     Cu                    
                Cu     Cu    Cu               
            Cu    Cu    CCu                   
       Cu     Cu    Cu        Cu     Cu       
                   Cu     Cu    Cu            
               Cu    Cu     Cu                
                    Cu     Cu    Cu           
               Cu     Cu     Cu               
           Cu    Cu     Cu                    
                Cu     Cu    Cu               
            Cu    Cu     Cu                   
       Cu     Cu   CCu         Cl             
                    Cl      Cl                
                                              
           Cl         Cl                      
                                              
                                              
                                              
                                              

Positions:
   0 Cu     2.880497   -0.005366   10.023807    ( 0.0000,  0.0000,  0.0000)
   1 Cu     4.165622    2.228950    9.990386    ( 0.0000,  0.0000,  0.0000)
   2 Cu     0.288627   -0.021596   10.012908    ( 0.0000,  0.0000,  0.0000)
   3 Cu     1.598864    2.234999   10.028910    ( 0.0000,  0.0000,  0.0000)
   4 Cu     2.896610    3.017510   12.123459    ( 0.0000,  0.0000,  0.0000)
   5 Cu     1.580158    0.751691   12.148682    ( 0.0000,  0.0000,  0.0000)
   6 Cu     5.504428    3.022216   12.129884    ( 0.0000,  0.0000,  0.0000)
   7 Cu     4.206320    0.766322   12.117460    ( 0.0000,  0.0000,  0.0000)
   8 Cu     5.511859    1.509826   14.275110    ( 0.0000,  0.0000,  0.0000)
   9 Cu     6.819121    3.779495   14.274266    ( 0.0000,  0.0000,  0.0000)
  10 Cu     2.895896    1.506491   14.276591    ( 0.0000,  0.0000,  0.0000)
  11 Cu     4.204099    3.777639   14.268278    ( 0.0000,  0.0000,  0.0000)
  12 Cu     2.896938   -0.005065   16.434126    ( 0.0000,  0.0000,  0.0000)
  13 Cu     4.201002    2.262887   16.411276    ( 0.0000,  0.0000,  0.0000)
  14 Cu     0.274227   -0.002504   16.415623    ( 0.0000,  0.0000,  0.0000)
  15 Cu     1.580607    2.265463   16.412260    ( 0.0000,  0.0000,  0.0000)
  16 Cu     2.892312    3.022536   18.536922    ( 0.0000,  0.0000,  0.0000)
  17 Cu     1.581711    0.759823   18.553029    ( 0.0000,  0.0000,  0.0000)
  18 Cu     5.512732    3.019244   18.556789    ( 0.0000,  0.0000,  0.0000)
  19 Cu     4.213527    0.765168   18.571919    ( 0.0000,  0.0000,  0.0000)
  20 Cu     5.490965    1.478223   20.697834    ( 0.0000,  0.0000,  0.0000)
  21 Cu     6.853390    3.807197   20.697547    ( 0.0000,  0.0000,  0.0000)
  22 Cu     2.868280    1.490492   20.651146    ( 0.0000,  0.0000,  0.0000)
  23 Cu     4.199438    3.809414   20.650571    ( 0.0000,  0.0000,  0.0000)
  24 Cu     5.530612    4.551612    9.982420    ( 0.0000,  0.0000,  0.0000)
  25 Cu     2.889722    4.532579   10.015440    ( 0.0000,  0.0000,  0.0000)
  26 Cu     4.211614    5.281219   12.128777    ( 0.0000,  0.0000,  0.0000)
  27 Cu     6.805463    5.269272   12.107501    ( 0.0000,  0.0000,  0.0000)
  28 Cu     8.122378    6.046632   14.248713    ( 0.0000,  0.0000,  0.0000)
  29 Cu     5.518375    6.046166   14.275857    ( 0.0000,  0.0000,  0.0000)
  30 Cu     5.508837    4.533615   16.409282    ( 0.0000,  0.0000,  0.0000)
  31 Cu     2.891021    4.533468   16.402209    ( 0.0000,  0.0000,  0.0000)
  32 Cu     4.200214    5.284545   18.553098    ( 0.0000,  0.0000,  0.0000)
  33 Cu     6.813544    5.271313   18.570877    ( 0.0000,  0.0000,  0.0000)
  34 Cu     8.135333    6.035473   20.663567    ( 0.0000,  0.0000,  0.0000)
  35 Cu     5.519960    6.052699   20.680479    ( 0.0000,  0.0000,  0.0000)
  36 Cu     5.498650   -0.013862   10.005631    ( 0.0000,  0.0000,  0.0000)
  37 Cu     6.809685    2.233978   10.067547    ( 0.0000,  0.0000,  0.0000)
  38 Cu     8.125152    3.022320   12.152647    ( 0.0000,  0.0000,  0.0000)
  39 Cu     6.817286    0.752180   12.135728    ( 0.0000,  0.0000,  0.0000)
  40 Cu     8.130518    1.509378   14.280117    ( 0.0000,  0.0000,  0.0000)
  41 Cu     9.439483    3.775959   14.273215    ( 0.0000,  0.0000,  0.0000)
  42 Cu     5.502223   -0.004088   16.403370    ( 0.0000,  0.0000,  0.0000)
  43 Cu     6.818179    2.264394   16.416343    ( 0.0000,  0.0000,  0.0000)
  44 Cu     8.126889    3.026263   18.565846    ( 0.0000,  0.0000,  0.0000)
  45 Cu     6.806657    0.754185   18.557012    ( 0.0000,  0.0000,  0.0000)
  46 Cu     8.129099    1.505023   20.668301    ( 0.0000,  0.0000,  0.0000)
  47 Cu     9.429318    3.808864   20.701464    ( 0.0000,  0.0000,  0.0000)
  48 Cu     8.141568    4.551257   10.021745    ( 0.0000,  0.0000,  0.0000)
  49 Cu     9.439530    5.280639   12.136292    ( 0.0000,  0.0000,  0.0000)
  50 Cu    10.748002    6.045387   14.268602    ( 0.0000,  0.0000,  0.0000)
  51 Cu     8.124544    4.536188   16.408197    ( 0.0000,  0.0000,  0.0000)
  52 Cu     9.440071    5.287073   18.536731    ( 0.0000,  0.0000,  0.0000)
  53 Cu    10.726105    6.051045   20.690499    ( 0.0000,  0.0000,  0.0000)
  54 Cl     6.450301    2.665776   22.650002    ( 0.0000,  0.0000,  0.0000)
  55 Cl     4.739117    3.389275    8.008675    ( 0.0000,  0.0000,  0.0000)
  56 Cl     9.618964    4.858472   22.951094    ( 0.0000,  0.0000,  0.0000)
  57 Cl     1.376852    1.038986    7.620644    ( 0.0000,  0.0000,  0.0000)
  58 Cl     8.515506    5.688049    7.683554    ( 0.0000,  0.0000,  0.0000)
  59 Cl     2.354393    0.309281   23.066069    ( 0.0000,  0.0000,  0.0000)
  60 Cl     5.017298    4.912710   23.070384    ( 0.0000,  0.0000,  0.0000)
  61 Cl     5.928159    1.112929    7.576870    ( 0.0000,  0.0000,  0.0000)
  62 Cl     3.667664    5.557564    7.642580    ( 0.0000,  0.0000,  0.0000)
  63 Cl     7.215531    0.378831   23.081975    ( 0.0000,  0.0000,  0.0000)
  64 Cl     3.422615    2.477125   22.650747    ( 0.0000,  0.0000,  0.0000)
  65 Cl     7.893711    3.385120    8.030975    ( 0.0000,  0.0000,  0.0000)

Unit cell:
           periodic     x           y           z      points  spacing
  1. axis:    yes    7.851007    0.000000    0.000000    45     0.1511
  2. axis:    yes    3.925503    6.799171    0.000000    45     0.1511
  3. axis:    yes    0.000000    0.000000   30.683867   175     0.1753

  Lengths:   7.851007   7.851006  30.683867
  Angles:   90.000000  90.000000  60.000001

Effective grid spacing dv^(1/3) = 0.1666

     iter     time        total  log10-change:
                         energy  eigst   dens
iter:   1 14:44:53 -4524.140646  -1.86
iter:   2 14:45:43 -4527.188449  -1.63  -1.71
iter:   3 14:46:32 -4519.688863  -2.23  -1.80
iter:   4 14:47:27 -4518.714476  -3.01  -2.07
iter:   5 14:48:18 -4518.339276  -4.28  -2.29
iter:   6 14:49:16 -4518.134075  -4.26  -2.43
iter:   7 14:50:08 -4518.110617c -4.10  -2.67
iter:   8 14:51:01 -4518.081872c -4.03  -2.74
iter:   9 14:51:53 -4518.074744c -4.54  -2.96
iter:  10 14:52:45 -4518.074541c -4.99  -3.02
iter:  11 14:53:37 -4518.083584c -4.79  -3.07
iter:  12 14:54:29 -4518.071126c -5.02  -3.01
iter:  13 14:55:17 -4518.070037c -5.90  -3.39
iter:  14 14:56:04 -4518.069121c -5.69  -3.50
iter:  15 14:56:54 -4518.068571c -5.70  -3.70
iter:  16 14:57:52 -4518.068790c -6.65  -3.78
iter:  17 14:58:42 -4518.068704c -7.14  -3.98
iter:  18 14:59:28 -4518.068668c -7.22  -4.07c
iter:  19 15:00:14 -4518.068782c -6.81  -4.11c
iter:  20 15:00:59 -4518.068685c -7.18  -4.27c
iter:  21 15:01:44 -4518.068690c -7.91c -4.39c

Converged after 21 iterations.

Dipole moment: (-33.830294, -22.540579, -0.022634) |e|*Ang

Energy contributions relative to reference atoms: (reference = -2581817.792169)

Kinetic:       +512.499331
Potential:     -534.947069
External:        +0.000000
XC:            -4494.574623
Entropy (-ST):   -0.759478
Local:           -0.666590
--------------------------
Free energy:   -4518.448429
Extrapolated:  -4518.068690

Showing only first 2 kpts
 Kpt  Band  Eigenvalues  Occupancy
  0   337      0.60221    1.42468
  0   338      0.64233    1.24754
  0   339      0.67976    1.06556
  0   340      0.71427    0.89352

  1   337      0.27982    1.96836
  1   338      0.38429    1.91262
  1   339      0.70261    0.95143
  1   340      0.76456    0.65623


Fermi level: 0.69289

No gap

Forces in eV/Ang:
  0 Cu   -0.08491    0.07295   -0.23880
  1 Cu    0.01656    0.07771    0.13061
  2 Cu    0.04937    0.03486   -0.41605
  3 Cu   -0.06167   -0.10711   -0.45006
  4 Cu   -0.06592    0.01727   -0.05522
  5 Cu   -0.02404    0.00182   -0.05851
  6 Cu    0.01476   -0.00994    0.03862
  7 Cu   -0.00725   -0.02925   -0.03932
  8 Cu    0.00283   -0.00606   -0.00095
  9 Cu    0.00568    0.00068    0.00763
 10 Cu    0.00637    0.00406   -0.03819
 11 Cu   -0.00826   -0.00540   -0.01604
 12 Cu   -0.01329    0.00807   -0.00581
 13 Cu   -0.01019    0.00010    0.01222
 14 Cu    0.00982   -0.00115    0.02674
 15 Cu    0.00452   -0.01616   -0.00861
 16 Cu   -0.04725    0.04114    0.08678
 17 Cu   -0.01441   -0.02019    0.07448
 18 Cu   -0.01340    0.00791   -0.00991
 19 Cu   -0.00160   -0.04949    0.00540
 20 Cu   -0.03381    0.11049   -0.05884
 21 Cu   -0.00627   -0.01292   -0.23564
 22 Cu   -0.02793   -0.02959   -0.16764
 23 Cu    0.02603    0.02520    0.17687
 24 Cu    0.00559   -0.08858    0.16173
 25 Cu    0.03288    0.09958   -0.10736
 26 Cu   -0.01237    0.04192   -0.01659
 27 Cu    0.01430    0.04678   -0.00696
 28 Cu    0.00927   -0.00480    0.01432
 29 Cu    0.00015   -0.00488   -0.00721
 30 Cu   -0.00942    0.00415    0.01062
 31 Cu    0.01026    0.00358    0.00334
 32 Cu   -0.02348    0.03228    0.10092
 33 Cu    0.00581    0.02757    0.02897
 34 Cu    0.05110   -0.03027    0.20697
 35 Cu   -0.01266   -0.06359    0.17879
 36 Cu    0.03153    0.10602   -0.15960
 37 Cu    0.05875   -0.02817   -0.22130
 38 Cu    0.03717   -0.02628   -0.04879
 39 Cu    0.01982   -0.03338   -0.07758
 40 Cu   -0.00907   -0.00694    0.00326
 41 Cu   -0.00085    0.01031    0.01455
 42 Cu    0.00131    0.00267    0.01573
 43 Cu    0.00533   -0.00043    0.03436
 44 Cu    0.08254   -0.00847    0.04993
 45 Cu    0.01407   -0.03809    0.03372
 46 Cu   -0.02298   -0.07371    0.08782
 47 Cu    0.01840    0.05256    0.39577
 48 Cu    0.00591    0.03301    0.20662
 49 Cu    0.00129    0.01766   -0.08383
 50 Cu   -0.00971   -0.00017   -0.01221
 51 Cu   -0.00476   -0.00368    0.03824
 52 Cu    0.02754   -0.01325    0.08426
 53 Cu   -0.02259    0.06843    0.37054
 54 Cl    0.54773    0.53022    0.06455
 55 Cl   -0.19996   -0.41072   -0.11910
 56 Cl   -1.57408   -0.18855   -1.16019
 57 Cl    1.55098   -0.00640    1.01526
 58 Cl   -0.68720    0.85519    0.01465
 59 Cl    0.52379   -0.63372   -0.04628
 60 Cl   -0.08425    0.15720   -0.10506
 61 Cl    0.08477   -0.35415    0.12999
 62 Cl   -0.54056   -0.05410    0.36211
 63 Cl    0.10858   -0.03027   -0.24338
 64 Cl    0.44937    0.12396    0.03313
 65 Cl   -0.21117   -0.23325   -0.00916

System changes: positions 

Initializing position-dependent things.

Density initialized from wave functions
                                              
                                              
                                              
                                              
                      Cl                      
                                 Cl           
                Cl      Cl                    
             Cl         CCl   Cu     Cu       
                   Cu     Cu    Cu            
               Cu    Cu     Cu                
                    Cu     Cu    Cu           
               Cu     Cu     Cu               
           Cu    Cu     Cu                    
                Cu     Cu    Cu               
            Cu    Cu    CCu          Cu       
       Cu     Cu    Cu        Cu              
                   Cu     Cu    Cu            
               Cu    Cu     Cu                
                    Cu     Cu    Cu           
               Cu     Cu     Cu               
           Cu    Cu     Cu                    
                Cu     Cu    Cu               
            Cu    Cu     Cu                   
       Cu     Cu   CCu         Cl             
                    Cl      Cl                
                                              
           Cl         Cl                      
                                              
                                              
                                              
                                              

Positions:
   0 Cu     2.873882    0.002062   10.010371    ( 0.0000,  0.0000,  0.0000)
   1 Cu     4.165175    2.237644    9.999287    ( 0.0000,  0.0000,  0.0000)
   2 Cu     0.294703   -0.020850    9.976202    ( 0.0000,  0.0000,  0.0000)
   3 Cu     1.597336    2.220781    9.996852    ( 0.0000,  0.0000,  0.0000)
   4 Cu     2.892875    3.019842   12.123057    ( 0.0000,  0.0000,  0.0000)
   5 Cu     1.577914    0.751218   12.148616    ( 0.0000,  0.0000,  0.0000)
   6 Cu     5.503077    3.024049   12.136887    ( 0.0000,  0.0000,  0.0000)
   7 Cu     4.206501    0.763891   12.117034    ( 0.0000,  0.0000,  0.0000)
   8 Cu     5.512278    1.509109   14.274833    ( 0.0000,  0.0000,  0.0000)
   9 Cu     6.819577    3.779784   14.274587    ( 0.0000,  0.0000,  0.0000)
  10 Cu     2.896311    1.506516   14.272666    ( 0.0000,  0.0000,  0.0000)
  11 Cu     4.203619    3.776829   14.264379    ( 0.0000,  0.0000,  0.0000)
  12 Cu     2.896044   -0.004336   16.432764    ( 0.0000,  0.0000,  0.0000)
  13 Cu     4.200127    2.262527   16.411956    ( 0.0000,  0.0000,  0.0000)
  14 Cu     0.275470   -0.002838   16.417289    ( 0.0000,  0.0000,  0.0000)
  15 Cu     1.580866    2.264173   16.410584    ( 0.0000,  0.0000,  0.0000)
  16 Cu     2.887883    3.023586   18.540617    ( 0.0000,  0.0000,  0.0000)
  17 Cu     1.583828    0.759944   18.561769    ( 0.0000,  0.0000,  0.0000)
  18 Cu     5.512033    3.019611   18.555304    ( 0.0000,  0.0000,  0.0000)
  19 Cu     4.211119    0.762840   18.574344    ( 0.0000,  0.0000,  0.0000)
  20 Cu     5.490570    1.485583   20.689748    ( 0.0000,  0.0000,  0.0000)
  21 Cu     6.856095    3.804007   20.681878    ( 0.0000,  0.0000,  0.0000)
  22 Cu     2.865412    1.479930   20.636967    ( 0.0000,  0.0000,  0.0000)
  23 Cu     4.205521    3.815276   20.665954    ( 0.0000,  0.0000,  0.0000)
  24 Cu     5.529303    4.545366    9.997499    ( 0.0000,  0.0000,  0.0000)
  25 Cu     2.899542    4.539930   10.003159    ( 0.0000,  0.0000,  0.0000)
  26 Cu     4.211244    5.282838   12.132068    ( 0.0000,  0.0000,  0.0000)
  27 Cu     6.808268    5.270477   12.105031    ( 0.0000,  0.0000,  0.0000)
  28 Cu     8.122840    6.046293   14.250451    ( 0.0000,  0.0000,  0.0000)
  29 Cu     5.518939    6.045862   14.274607    ( 0.0000,  0.0000,  0.0000)
  30 Cu     5.507978    4.534318   16.409901    ( 0.0000,  0.0000,  0.0000)
  31 Cu     2.892016    4.533899   16.401367    ( 0.0000,  0.0000,  0.0000)
  32 Cu     4.198288    5.287247   18.559096    ( 0.0000,  0.0000,  0.0000)
  33 Cu     6.813646    5.272918   18.572893    ( 0.0000,  0.0000,  0.0000)
  34 Cu     8.139421    6.030101   20.675839    ( 0.0000,  0.0000,  0.0000)
  35 Cu     5.522331    6.045981   20.701576    ( 0.0000,  0.0000,  0.0000)
  36 Cu     5.498718   -0.003748    9.984166    ( 0.0000,  0.0000,  0.0000)
  37 Cu     6.811445    2.228576   10.049179    ( 0.0000,  0.0000,  0.0000)
  38 Cu     8.128679    3.023865   12.153844    ( 0.0000,  0.0000,  0.0000)
  39 Cu     6.818269    0.747772   12.134266    ( 0.0000,  0.0000,  0.0000)
  40 Cu     8.129776    1.508621   14.280596    ( 0.0000,  0.0000,  0.0000)
  41 Cu     9.439173    3.776465   14.274803    ( 0.0000,  0.0000,  0.0000)
  42 Cu     5.501746   -0.003791   16.404415    ( 0.0000,  0.0000,  0.0000)
  43 Cu     6.818751    2.264518   16.420662    ( 0.0000,  0.0000,  0.0000)
  44 Cu     8.133493    3.026037   18.569525    ( 0.0000,  0.0000,  0.0000)
  45 Cu     6.807813    0.750510   18.557168    ( 0.0000,  0.0000,  0.0000)
  46 Cu     8.122622    1.499546   20.678130    ( 0.0000,  0.0000,  0.0000)
  47 Cu     9.426489    3.822377   20.738162    ( 0.0000,  0.0000,  0.0000)
  48 Cu     8.140294    4.559146   10.030471    ( 0.0000,  0.0000,  0.0000)
  49 Cu     9.437088    5.280670   12.129244    ( 0.0000,  0.0000,  0.0000)
  50 Cu    10.746864    6.045939   14.267910    ( 0.0000,  0.0000,  0.0000)
  51 Cu     8.124000    4.536038   16.411420    ( 0.0000,  0.0000,  0.0000)
  52 Cu     9.442800    5.285668   18.540313    ( 0.0000,  0.0000,  0.0000)
  53 Cu    10.720050    6.057251   20.725312    ( 0.0000,  0.0000,  0.0000)
  54 Cl     6.544295    2.686590   22.650658    ( 0.0000,  0.0000,  0.0000)
  55 Cl     4.689415    3.382588    8.002407    ( 0.0000,  0.0000,  0.0000)
  56 Cl     9.435852    4.834668   22.874260    ( 0.0000,  0.0000,  0.0000)
  57 Cl     1.544303    1.036324    7.668598    ( 0.0000,  0.0000,  0.0000)
  58 Cl     8.419255    5.749885    7.698109    ( 0.0000,  0.0000,  0.0000)
  59 Cl     2.433693    0.264086   23.055667    ( 0.0000,  0.0000,  0.0000)
  60 Cl     5.054146    4.933336   23.062918    ( 0.0000,  0.0000,  0.0000)
  61 Cl     5.888823    1.069835    7.581031    ( 0.0000,  0.0000,  0.0000)
  62 Cl     3.667838    5.487871    7.672315    ( 0.0000,  0.0000,  0.0000)
  63 Cl     7.180145    0.427634   23.061007    ( 0.0000,  0.0000,  0.0000)
  64 Cl     3.430576    2.454387   22.648057    ( 0.0000,  0.0000,  0.0000)
  65 Cl     7.907028    3.430152    8.038667    ( 0.0000,  0.0000,  0.0000)

Unit cell:
           periodic     x           y           z      points  spacing
  1. axis:    yes    7.851007    0.000000    0.000000    45     0.1511
  2. axis:    yes    3.925503    6.799171    0.000000    45     0.1511
  3. axis:    yes    0.000000    0.000000   30.683867   175     0.1753

  Lengths:   7.851007   7.851006  30.683867
  Angles:   90.000000  90.000000  60.000001

Effective grid spacing dv^(1/3) = 0.1666

     iter     time        total  log10-change:
                         energy  eigst   dens
iter:   1 15:02:54 -4524.245448  -1.88
iter:   2 15:03:39 -4527.142755  -1.71  -1.76
iter:   3 15:04:23 -4521.225109  -2.25  -1.84
iter:   4 15:05:09 -4519.221993  -3.01  -1.99
iter:   5 15:05:59 -4519.117205  -4.03  -2.41
iter:   6 15:06:55 -4518.972385c -3.79  -2.47
iter:   7 15:07:59 -4518.930060c -4.90  -2.64
iter:   8 15:08:55 -4518.933801c -4.19  -2.77
iter:   9 15:09:44 -4518.896514c -4.23  -2.81
iter:  10 15:10:43 -4518.892360c -4.88  -3.10
iter:  11 15:11:43 -4518.891922c -5.04  -3.28
iter:  12 15:12:43 -4518.891893c -5.80  -3.36
iter:  13 15:13:43 -4518.890929c -5.57  -3.45
iter:  14 15:14:49 -4518.892692c -5.65  -3.58
iter:  15 15:15:48 -4518.890620c -6.07  -3.53
iter:  16 15:16:50 -4518.890498c -6.56  -3.83
iter:  17 15:17:40 -4518.890494c -7.06  -3.89
iter:  18 15:18:29 -4518.890408c -6.53  -3.94
iter:  19 15:19:33 -4518.890457c -6.90  -4.10c
iter:  20 15:20:23 -4518.890413c -7.51c -4.36c

Converged after 20 iterations.

Dipole moment: (-33.020886, -22.468913, -0.020130) |e|*Ang

Energy contributions relative to reference atoms: (reference = -2581817.792169)

Kinetic:       +512.050010
Potential:     -534.892564
External:        +0.000000
XC:            -4494.996275
Entropy (-ST):   -0.752797
Local:           -0.675185
--------------------------
Free energy:   -4519.266811
Extrapolated:  -4518.890413

Showing only first 2 kpts
 Kpt  Band  Eigenvalues  Occupancy
  0   337      0.65117    1.46332
  0   338      0.69920    1.25561
  0   339      0.72662    1.12364
  0   340      0.77623    0.87688

  1   337      0.32997    1.97089
  1   338      0.44644    1.90960
  1   339      0.75228    0.99598
  1   340      0.82884    0.63141


Fermi level: 0.75148

No gap

Forces in eV/Ang:
  0 Cu   -0.06013    0.03854   -0.27175
  1 Cu    0.02931    0.05277    0.17118
  2 Cu    0.01855    0.02600   -0.26174
  3 Cu   -0.05673   -0.00057   -0.38278
  4 Cu   -0.08157    0.01000   -0.10437
  5 Cu   -0.02243    0.01132   -0.11842
  6 Cu    0.04978   -0.04417   -0.00894
  7 Cu   -0.01149   -0.02943   -0.06803
  8 Cu    0.00317   -0.00422    0.00577
  9 Cu    0.00634   -0.00207    0.01510
 10 Cu    0.00592    0.00693   -0.02544
 11 Cu   -0.01171   -0.00012    0.01689
 12 Cu   -0.01495    0.00710    0.00374
 13 Cu   -0.00974    0.00495    0.01650
 14 Cu    0.00523    0.00081    0.03427
 15 Cu    0.00557   -0.01565    0.00490
 16 Cu   -0.03089    0.06805    0.11743
 17 Cu   -0.05209   -0.04406    0.04026
 18 Cu   -0.02218    0.01346   -0.00116
 19 Cu    0.02278   -0.06879   -0.02115
 20 Cu   -0.05599    0.10874   -0.06358
 21 Cu   -0.05250   -0.00533   -0.26814
 22 Cu   -0.02490    0.05645   -0.13666
 23 Cu   -0.00564   -0.00836    0.12887
 24 Cu    0.03660   -0.09075    0.17595
 25 Cu   -0.06318    0.08066    0.00713
 26 Cu   -0.02207    0.05791   -0.06643
 27 Cu   -0.00137    0.07483    0.01905
 28 Cu    0.01195   -0.00632    0.01051
 29 Cu   -0.00555   -0.00625    0.00020
 30 Cu   -0.01091    0.00063    0.01293
 31 Cu    0.00962    0.00159    0.01752
 32 Cu   -0.02061    0.02218    0.13405
 33 Cu    0.00533    0.03865    0.02676
 34 Cu    0.02047    0.02045    0.21118
 35 Cu   -0.03793   -0.04890    0.08598
 36 Cu    0.04311    0.09128   -0.04250
 37 Cu    0.06082    0.00713   -0.14469
 38 Cu    0.02242   -0.06946   -0.10240
 39 Cu    0.02319   -0.00520   -0.14265
 40 Cu   -0.01066   -0.00511    0.00152
 41 Cu    0.00152    0.01431    0.01116
 42 Cu    0.00723    0.00146    0.02027
 43 Cu    0.00472   -0.00322    0.01823
 44 Cu    0.07914   -0.01856    0.05003
 45 Cu    0.01234   -0.02829    0.06340
 46 Cu    0.02943   -0.05429    0.01489
 47 Cu    0.05676   -0.14576    0.11478
 48 Cu    0.03507   -0.00413    0.28397
 49 Cu    0.03274    0.03712   -0.07584
 50 Cu   -0.00601   -0.00651   -0.01300
 51 Cu   -0.00128   -0.00518    0.03745
 52 Cu    0.02434   -0.00733    0.12146
 53 Cu    0.03722    0.08076    0.22740
 54 Cl    0.17469    0.85426    0.04885
 55 Cl    0.20481   -0.82149   -0.15748
 56 Cl   -1.02483    0.03724   -0.94796
 57 Cl    1.10020   -0.10947    1.13577
 58 Cl   -0.39929    0.71025   -0.11336
 59 Cl    0.26193   -0.53877    0.04631
 60 Cl   -0.36873   -0.03878   -0.09155
 61 Cl    0.34926    0.01137    0.11911
 62 Cl   -0.81366    0.66789    0.17567
 63 Cl    0.36639   -0.76479   -0.10189
 64 Cl    0.57813    0.46195    0.06975
 65 Cl   -0.41821   -0.68514   -0.07391

System changes: positions 

Initializing position-dependent things.

Density initialized from wave functions
                                              
                                              
                                              
                                              
                      Cl                      
                                Cl            
                 Cl      Cl          Cu       
             Cl         CCl   Cu              
                   Cu     Cu    Cu            
              Cu     Cu     Cu                
                    Cu     Cu    Cu           
               Cu     Cu     Cu               
           Cu    Cu     Cu                    
                Cu     Cu    Cu               
            Cu    Cu    CCu                   
       Cu     Cu    Cu        Cu     Cu       
                   Cu     Cu    Cu            
               Cu    Cu     Cu                
                    Cu     Cu    Cu           
               Cu     Cu     Cu               
           Cu    Cu     Cu                    
                Cu     Cu    Cu               
            Cu    Cu     Cu                   
       Cu     Cu   CCu         Cl             
                    Cl      Cl                
                                              
           Cl         Cl                      
                                              
                                              
                                              
                                              

Positions:
   0 Cu     2.867295    0.007884    9.987714    ( 0.0000,  0.0000,  0.0000)
   1 Cu     4.165968    2.246079   10.015055    ( 0.0000,  0.0000,  0.0000)
   2 Cu     0.299876   -0.021179    9.943792    ( 0.0000,  0.0000,  0.0000)
   3 Cu     1.596214    2.213834    9.959854    ( 0.0000,  0.0000,  0.0000)
   4 Cu     2.885680    3.021693   12.115804    ( 0.0000,  0.0000,  0.0000)
   5 Cu     1.575077    0.751757   12.140806    ( 0.0000,  0.0000,  0.0000)
   6 Cu     5.505790    3.022171   12.139600    ( 0.0000,  0.0000,  0.0000)
   7 Cu     4.206088    0.760659   12.112528    ( 0.0000,  0.0000,  0.0000)
   8 Cu     5.512805    1.508450   14.275199    ( 0.0000,  0.0000,  0.0000)
   9 Cu     6.820256    3.779798   14.275739    ( 0.0000,  0.0000,  0.0000)
  10 Cu     2.896855    1.506896   14.269045    ( 0.0000,  0.0000,  0.0000)
  11 Cu     4.202664    3.776380   14.263250    ( 0.0000,  0.0000,  0.0000)
  12 Cu     2.894667   -0.003521   16.432028    ( 0.0000,  0.0000,  0.0000)
  13 Cu     4.199038    2.262635   16.413231    ( 0.0000,  0.0000,  0.0000)
  14 Cu     0.276533   -0.002990   16.420083    ( 0.0000,  0.0000,  0.0000)
  15 Cu     1.581340    2.262524   16.409739    ( 0.0000,  0.0000,  0.0000)
  16 Cu     2.883714    3.028382   18.549384    ( 0.0000,  0.0000,  0.0000)
  17 Cu     1.582100    0.757339   18.569127    ( 0.0000,  0.0000,  0.0000)
  18 Cu     5.510021    3.020727   18.554556    ( 0.0000,  0.0000,  0.0000)
  19 Cu     4.211111    0.757397   18.574520    ( 0.0000,  0.0000,  0.0000)
  20 Cu     5.487711    1.495566   20.680742    ( 0.0000,  0.0000,  0.0000)
  21 Cu     6.855027    3.800857   20.657679    ( 0.0000,  0.0000,  0.0000)
  22 Cu     2.862390    1.477327   20.622991    ( 0.0000,  0.0000,  0.0000)
  23 Cu     4.209261    3.818361   20.680195    ( 0.0000,  0.0000,  0.0000)
  24 Cu     5.530799    4.536745   10.016506    ( 0.0000,  0.0000,  0.0000)
  25 Cu     2.901405    4.547636    9.997566    ( 0.0000,  0.0000,  0.0000)
  26 Cu     4.209634    5.287409   12.129532    ( 0.0000,  0.0000,  0.0000)
  27 Cu     6.809791    5.275553   12.104556    ( 0.0000,  0.0000,  0.0000)
  28 Cu     8.123790    6.045693   14.252151    ( 0.0000,  0.0000,  0.0000)
  29 Cu     5.518968    6.045321   14.273928    ( 0.0000,  0.0000,  0.0000)
  30 Cu     5.506787    4.534783   16.410852    ( 0.0000,  0.0000,  0.0000)
  31 Cu     2.893192    4.534212   16.401739    ( 0.0000,  0.0000,  0.0000)
  32 Cu     4.195894    5.289737   18.571144    ( 0.0000,  0.0000,  0.0000)
  33 Cu     6.813933    5.276353   18.575750    ( 0.0000,  0.0000,  0.0000)
  34 Cu     8.142619    6.028374   20.694654    ( 0.0000,  0.0000,  0.0000)
  35 Cu     5.522501    6.039247   20.717825    ( 0.0000,  0.0000,  0.0000)
  36 Cu     5.499971    0.007221    9.970408    ( 0.0000,  0.0000,  0.0000)
  37 Cu     6.813496    2.226201   10.035462    ( 0.0000,  0.0000,  0.0000)
  38 Cu     8.131753    3.020361   12.148318    ( 0.0000,  0.0000,  0.0000)
  39 Cu     6.820222    0.745398   12.123885    ( 0.0000,  0.0000,  0.0000)
  40 Cu     8.128665    1.507913   14.281034    ( 0.0000,  0.0000,  0.0000)
  41 Cu     9.439033    3.777604   14.276487    ( 0.0000,  0.0000,  0.0000)
  42 Cu     5.501841   -0.003541   16.406073    ( 0.0000,  0.0000,  0.0000)
  43 Cu     6.819384    2.264390   16.424176    ( 0.0000,  0.0000,  0.0000)
  44 Cu     8.142057    3.024796   18.575028    ( 0.0000,  0.0000,  0.0000)
  45 Cu     6.809065    0.746589   18.561366    ( 0.0000,  0.0000,  0.0000)
  46 Cu     8.120233    1.494398   20.684121    ( 0.0000,  0.0000,  0.0000)
  47 Cu     9.426827    3.820837   20.764336    ( 0.0000,  0.0000,  0.0000)
  48 Cu     8.141769    4.564379   10.050482    ( 0.0000,  0.0000,  0.0000)
  49 Cu     9.437724    5.283025   12.120859    ( 0.0000,  0.0000,  0.0000)
  50 Cu    10.745849    6.045886   14.266987    ( 0.0000,  0.0000,  0.0000)
  51 Cu     8.123632    4.535674   16.415343    ( 0.0000,  0.0000,  0.0000)
  52 Cu     9.445976    5.284466   18.549817    ( 0.0000,  0.0000,  0.0000)
  53 Cu    10.718048    6.066332   20.756616    ( 0.0000,  0.0000,  0.0000)
  54 Cl     6.617196    2.746851   22.652474    ( 0.0000,  0.0000,  0.0000)
  55 Cl     4.672692    3.331906    7.989845    ( 0.0000,  0.0000,  0.0000)
  56 Cl     9.261174    4.823394   22.777510    ( 0.0000,  0.0000,  0.0000)
  57 Cl     1.715576    1.021354    7.756007    ( 0.0000,  0.0000,  0.0000)
  58 Cl     8.328634    5.813127    7.701964    ( 0.0000,  0.0000,  0.0000)
  59 Cl     2.503868    0.214723   23.051845    ( 0.0000,  0.0000,  0.0000)
  60 Cl     5.060956    4.937791   23.055415    ( 0.0000,  0.0000,  0.0000)
  61 Cl     5.873964    1.053945    7.585734    ( 0.0000,  0.0000,  0.0000)
  62 Cl     3.630141    5.473352    7.696338    ( 0.0000,  0.0000,  0.0000)
  63 Cl     7.175000    0.415920   23.045280    ( 0.0000,  0.0000,  0.0000)
  64 Cl     3.459580    2.461835   22.649766    ( 0.0000,  0.0000,  0.0000)
  65 Cl     7.894889    3.442178    8.039838    ( 0.0000,  0.0000,  0.0000)

Unit cell:
           periodic     x           y           z      points  spacing
  1. axis:    yes    7.851007    0.000000    0.000000    45     0.1511
  2. axis:    yes    3.925503    6.799171    0.000000    45     0.1511
  3. axis:    yes    0.000000    0.000000   30.683867   175     0.1753

  Lengths:   7.851007   7.851006  30.683867
  Angles:   90.000000  90.000000  60.000001

Effective grid spacing dv^(1/3) = 0.1666

     iter     time        total  log10-change:
                         energy  eigst   dens
iter:   1 15:21:43 -4523.372588  -1.90
iter:   2 15:22:34 -4523.003991  -1.95  -1.87
iter:   3 15:23:24 -4519.936060  -2.91  -1.94
iter:   4 15:24:19 -4520.473139  -3.31  -2.43
iter:   5 15:25:16 -4519.742461  -3.85  -2.24
iter:   6 15:26:12 -4519.684302  -4.03  -2.69
iter:   7 15:26:59 -4519.694730c -3.98  -2.87
iter:   8 15:27:45 -4519.672411c -4.41  -2.81
iter:   9 15:28:40 -4519.663566c -5.43  -3.01
iter:  10 15:29:37 -4519.660386c -4.78  -3.14
iter:  11 15:30:29 -4519.661995c -5.53  -3.21
iter:  12 15:31:23 -4519.658804c -5.18  -3.18
iter:  13 15:32:19 -4519.658498c -5.86  -3.64
iter:  14 15:33:16 -4519.657777c -6.48  -3.73
iter:  15 15:34:15 -4519.657585c -6.50  -3.75
iter:  16 15:35:20 -4519.657788c -6.12  -3.87
iter:  17 15:36:15 -4519.657763c -6.38  -4.16c
iter:  18 15:37:11 -4519.657855c -7.50c -4.26c

Converged after 18 iterations.

Dipole moment: (-33.124806, -22.752484, -0.032569) |e|*Ang

Energy contributions relative to reference atoms: (reference = -2581817.792169)

Kinetic:       +512.397011
Potential:     -535.627220
External:        +0.000000
XC:            -4495.382582
Entropy (-ST):   -0.749311
Local:           -0.670408
--------------------------
Free energy:   -4520.032510
Extrapolated:  -4519.657855

Showing only first 2 kpts
 Kpt  Band  Eigenvalues  Occupancy
  0   337      0.63545    1.54801
  0   338      0.67934    1.37659
  0   339      0.71757    1.20211
  0   340      0.78707    0.85840

  1   337      0.36325    1.96233
  1   338      0.47071    1.89354
  1   339      0.75973    0.99416
  1   340      0.81328    0.73301


Fermi level: 0.75856

No gap

Forces in eV/Ang:
  0 Cu    0.00285   -0.01733   -0.29968
  1 Cu    0.03685    0.07065    0.13734
  2 Cu   -0.02911   -0.02361   -0.18066
  3 Cu   -0.06440    0.11994   -0.27834
  4 Cu   -0.07156    0.00906   -0.09447
  5 Cu   -0.00638    0.01091   -0.14890
  6 Cu    0.04742   -0.04701   -0.00228
  7 Cu   -0.02194   -0.02803   -0.06583
  8 Cu    0.00350   -0.00602    0.00016
  9 Cu    0.00844   -0.00388    0.00682
 10 Cu    0.00292    0.00835   -0.02898
 11 Cu   -0.01129    0.00249    0.01390
 12 Cu   -0.01319    0.00420   -0.00068
 13 Cu   -0.01116    0.00581    0.01935
 14 Cu   -0.00302   -0.00367    0.03341
 15 Cu    0.00986   -0.00940    0.01309
 16 Cu   -0.01002    0.05814    0.09977
 17 Cu   -0.05938   -0.04732    0.00354
 18 Cu   -0.02146    0.01350   -0.01547
 19 Cu    0.02780   -0.07189   -0.02789
 20 Cu   -0.02347    0.10080    0.02884
 21 Cu   -0.07911   -0.02873   -0.23547
 22 Cu   -0.00589    0.08984    0.01717
 23 Cu   -0.03082   -0.02908    0.11572
 24 Cu    0.00491   -0.08467    0.07086
 25 Cu   -0.07453    0.06574   -0.02426
 26 Cu   -0.01621    0.04120   -0.06761
 27 Cu   -0.01469    0.09146    0.04847
 28 Cu    0.01349   -0.00359    0.00920
 29 Cu   -0.01162   -0.00228    0.00050
 30 Cu   -0.01107    0.00193    0.01208
 31 Cu    0.00481    0.00163    0.03470
 32 Cu   -0.01104    0.00963    0.13102
 33 Cu    0.00849    0.04262    0.01254
 34 Cu   -0.02751    0.06918    0.19897
 35 Cu   -0.03469   -0.00258    0.06690
 36 Cu    0.02977    0.04075   -0.02070
 37 Cu    0.08356    0.04565   -0.13988
 38 Cu    0.01856   -0.07389   -0.10059
 39 Cu    0.01660    0.00703   -0.14091
 40 Cu   -0.00807   -0.00521   -0.01506
 41 Cu   -0.00041    0.01065   -0.00464
 42 Cu    0.01244   -0.00244    0.01670
 43 Cu    0.00359   -0.00624    0.00741
 44 Cu    0.05483   -0.03040    0.00971
 45 Cu    0.00368   -0.00819    0.06382
 46 Cu    0.01405   -0.03196    0.07067
 47 Cu    0.12721   -0.37610   -0.33821
 48 Cu    0.04005   -0.05094    0.11792
 49 Cu    0.04556    0.04491   -0.01891
 50 Cu    0.00019   -0.00252   -0.02065
 51 Cu    0.00436   -0.00459    0.03684
 52 Cu    0.01253    0.00799    0.13593
 53 Cu    0.07490    0.10357    0.16946
 54 Cl    0.08942    0.66482   -0.05848
 55 Cl    0.19953   -0.62769   -0.08982
 56 Cl   -0.59885    0.29527   -0.45270
 57 Cl    0.67074   -0.09194    1.12169
 58 Cl   -0.27254    0.43232   -0.05632
 59 Cl    0.17558   -0.35876   -0.00923
 60 Cl   -0.57603   -0.13895   -0.04163
 61 Cl    0.58879    0.15999    0.06432
 62 Cl   -0.76827    0.80956    0.24505
 63 Cl    0.35352   -0.91320   -0.19820
 64 Cl    0.51623    0.56705   -0.01855
 65 Cl   -0.43732   -0.86942    0.07200

System changes: positions 

Initializing position-dependent things.

Density initialized from wave functions
                                              
                                              
                                              
                                              
                      Cl                      
                                Cl            
                 Cl      Cl          Cu       
             Cl         CCl   Cu              
                   Cu     Cu    Cu            
              Cu     Cu     Cu                
                    Cu     Cu    Cu           
               Cu     Cu     Cu               
           Cu    Cu     Cu                    
                Cu     Cu    Cu               
            Cu    Cu    CCu                   
       Cu     Cu    Cu        Cu     Cu       
                   Cu     Cu    Cu            
               Cu    Cu     Cu                
                    Cu     Cu    Cu           
               Cu     Cu     Cu               
           Cu    Cu     Cu                    
                Cu     Cu    Cu               
            Cu    Cu     Cu                   
       Cu     Cu   CCu        Cl              
                    Cl      Cl                
            Cl                                
                      Cl                      
                                              
                                              
                                              
                                              

Positions:
   0 Cu     2.860707    0.013705    9.965056    ( 0.0000,  0.0000,  0.0000)
   1 Cu     4.166761    2.254513   10.030823    ( 0.0000,  0.0000,  0.0000)
   2 Cu     0.305049   -0.021507    9.911383    ( 0.0000,  0.0000,  0.0000)
   3 Cu     1.595091    2.206888    9.922856    ( 0.0000,  0.0000,  0.0000)
   4 Cu     2.878486    3.023545   12.108551    ( 0.0000,  0.0000,  0.0000)
   5 Cu     1.572239    0.752296   12.132996    ( 0.0000,  0.0000,  0.0000)
   6 Cu     5.508504    3.020294   12.142313    ( 0.0000,  0.0000,  0.0000)
   7 Cu     4.205675    0.757426   12.108021    ( 0.0000,  0.0000,  0.0000)
   8 Cu     5.513331    1.507790   14.275566    ( 0.0000,  0.0000,  0.0000)
   9 Cu     6.820935    3.779812   14.276890    ( 0.0000,  0.0000,  0.0000)
  10 Cu     2.897400    1.507276   14.265423    ( 0.0000,  0.0000,  0.0000)
  11 Cu     4.201709    3.775931   14.262121    ( 0.0000,  0.0000,  0.0000)
  12 Cu     2.893290   -0.002707   16.431292    ( 0.0000,  0.0000,  0.0000)
  13 Cu     4.197948    2.262743   16.414506    ( 0.0000,  0.0000,  0.0000)
  14 Cu     0.277596   -0.003141   16.422877    ( 0.0000,  0.0000,  0.0000)
  15 Cu     1.581814    2.260875   16.408893    ( 0.0000,  0.0000,  0.0000)
  16 Cu     2.879544    3.033177   18.558151    ( 0.0000,  0.0000,  0.0000)
  17 Cu     1.580373    0.754733   18.576486    ( 0.0000,  0.0000,  0.0000)
  18 Cu     5.508008    3.021843   18.553807    ( 0.0000,  0.0000,  0.0000)
  19 Cu     4.211103    0.751953   18.574695    ( 0.0000,  0.0000,  0.0000)
  20 Cu     5.484852    1.505548   20.671735    ( 0.0000,  0.0000,  0.0000)
  21 Cu     6.853960    3.797707   20.633479    ( 0.0000,  0.0000,  0.0000)
  22 Cu     2.859368    1.474724   20.609015    ( 0.0000,  0.0000,  0.0000)
  23 Cu     4.213001    3.821446   20.694436    ( 0.0000,  0.0000,  0.0000)
  24 Cu     5.532294    4.528124   10.035514    ( 0.0000,  0.0000,  0.0000)
  25 Cu     2.903268    4.555343    9.991974    ( 0.0000,  0.0000,  0.0000)
  26 Cu     4.208023    5.291979   12.126997    ( 0.0000,  0.0000,  0.0000)
  27 Cu     6.811315    5.280630   12.104081    ( 0.0000,  0.0000,  0.0000)
  28 Cu     8.124740    6.045092   14.253851    ( 0.0000,  0.0000,  0.0000)
  29 Cu     5.518996    6.044779   14.273250    ( 0.0000,  0.0000,  0.0000)
  30 Cu     5.505596    4.535248   16.411803    ( 0.0000,  0.0000,  0.0000)
[...]
 27 Cu    0.00039   -0.00261    0.00029
 28 Cu    0.00088    0.00174   -0.00858
 29 Cu    0.00011   -0.00586   -0.00099
 30 Cu   -0.00367    0.00018   -0.00162
 31 Cu   -0.00170    0.00034    0.00202
 32 Cu   -0.00116    0.00461    0.00886
 33 Cu   -0.00115    0.00248   -0.00464
 34 Cu    0.00199    0.00473   -0.00941
 35 Cu    0.00371   -0.00122   -0.00205
 36 Cu    0.00591    0.00975    0.00118
 37 Cu   -0.00468   -0.00212    0.00302
 38 Cu   -0.00329   -0.00021   -0.00221
 39 Cu   -0.00093   -0.00035   -0.00099
 40 Cu    0.00208   -0.00021   -0.00382
 41 Cu    0.00122    0.00422   -0.00385
 42 Cu   -0.00231   -0.00104   -0.00304
 43 Cu   -0.00053    0.00324   -0.00128
 44 Cu   -0.00364    0.00344   -0.00244
 45 Cu   -0.00684    0.00110   -0.00268
 46 Cu   -0.00462   -0.01096    0.00356
 47 Cu   -0.00995   -0.00630    0.00326
 48 Cu    0.00513    0.00678    0.00939
 49 Cu   -0.00146    0.00136   -0.00431
 50 Cu   -0.00375   -0.00416   -0.00107
 51 Cu    0.00369    0.00045   -0.01001
 52 Cu   -0.00238    0.00220   -0.00219
 53 Cu   -0.00492    0.01366    0.00402
 54 Cl    0.00139    0.01021   -0.00042
 55 Cl   -0.00526    0.00084    0.00316
 56 Cl   -0.00263   -0.00835    0.00514
 57 Cl   -0.00375    0.00318    0.00961
 58 Cl    0.00564   -0.00413   -0.01851
 59 Cl   -0.00103   -0.00556    0.00609
 60 Cl    0.00425    0.00040    0.00338
 61 Cl    0.01677   -0.02604   -0.00254
 62 Cl    0.00622   -0.00695   -0.00651
 63 Cl   -0.01075    0.01632    0.01718
 64 Cl   -0.00316   -0.01683    0.01216
 65 Cl    0.01044   -0.00962    0.00198

System changes: positions 

Initializing position-dependent things.

Density initialized from wave functions
                                               
                                               
                                               
                                               
                                               
                      Cl                       
                                               
                                               
                                  Cl           
                   Cl    CCl   Cu    Cu        
                                               
              Cl    Cu    CCl    Cu            
               Cu    CCu   CCu    Cu           
                                               
                Cu     Cu    Cu                
           Cu    CCu    Cu    Cu               
                                               
            Cu     Cu    Cu    Cu     Cu       
        Cu    Cu    CCu   Cu     Cu            
                                               
               Cu    CCu   CCu    Cu           
                Cu     Cu    Cu                
                                               
           Cu    CCu   CCu    Cu               
            Cu     Cu    Cu     Cl             
                    Cl                         
        Cu    Cu     Cu      Cl                
                                               
            Cl                                 
                                               
                       Cl                      
                                               
                                               
                                               
                                               
                                               

Positions:
   0 Cu     2.848623    0.001589    9.992178    ( 0.0000,  0.0000,  0.0000)
   1 Cu     4.052312    2.280053   10.156832    ( 0.0000,  0.0000,  0.0000)
   2 Cu     0.230067    0.066632    9.917624    ( 0.0000,  0.0000,  0.0000)
   3 Cu     1.507203    2.330868    9.892789    ( 0.0000,  0.0000,  0.0000)
   4 Cu     2.793005    3.065481   12.161519    ( 0.0000,  0.0000,  0.0000)
   5 Cu     1.528204    0.811597   12.075316    ( 0.0000,  0.0000,  0.0000)
   6 Cu     5.457464    3.080169   12.112756    ( 0.0000,  0.0000,  0.0000)
   7 Cu     4.123674    0.785889   12.206816    ( 0.0000,  0.0000,  0.0000)
   8 Cu     5.455609    1.556372   14.275486    ( 0.0000,  0.0000,  0.0000)
   9 Cu     6.762740    3.819022   14.243015    ( 0.0000,  0.0000,  0.0000)
  10 Cu     2.819749    1.552696   14.288757    ( 0.0000,  0.0000,  0.0000)
  11 Cu     4.140752    3.824137   14.254448    ( 0.0000,  0.0000,  0.0000)
  12 Cu     2.818982    0.046486   16.456128    ( 0.0000,  0.0000,  0.0000)
  13 Cu     4.138250    2.291035   16.403824    ( 0.0000,  0.0000,  0.0000)
  14 Cu     0.210958    0.041534   16.450026    ( 0.0000,  0.0000,  0.0000)
  15 Cu     1.512878    2.291913   16.404687    ( 0.0000,  0.0000,  0.0000)
  16 Cu     2.829073    3.008079   18.515625    ( 0.0000,  0.0000,  0.0000)
  17 Cu     1.513281    0.798588   18.643184    ( 0.0000,  0.0000,  0.0000)
  18 Cu     5.444098    3.042062   18.510244    ( 0.0000,  0.0000,  0.0000)
  19 Cu     4.158310    0.787827   18.613568    ( 0.0000,  0.0000,  0.0000)
  20 Cu     5.456112    1.552878   20.839695    ( 0.0000,  0.0000,  0.0000)
  21 Cu     6.735984    3.836463   20.555896    ( 0.0000,  0.0000,  0.0000)
  22 Cu     2.821810    1.481536   20.793787    ( 0.0000,  0.0000,  0.0000)
  23 Cu     4.132357    3.816426   20.587135    ( 0.0000,  0.0000,  0.0000)
  24 Cu     5.373644    4.543401    9.834242    ( 0.0000,  0.0000,  0.0000)
  25 Cu     2.763909    4.556626   10.104001    ( 0.0000,  0.0000,  0.0000)
  26 Cu     4.150308    5.349103   12.109503    ( 0.0000,  0.0000,  0.0000)
  27 Cu     6.726890    5.322545   12.080331    ( 0.0000,  0.0000,  0.0000)
  28 Cu     8.049699    6.081520   14.306714    ( 0.0000,  0.0000,  0.0000)
  29 Cu     5.449506    6.101153   14.259394    ( 0.0000,  0.0000,  0.0000)
  30 Cu     5.447440    4.572751   16.376607    ( 0.0000,  0.0000,  0.0000)
  31 Cu     2.831405    4.565112   16.409084    ( 0.0000,  0.0000,  0.0000)
  32 Cu     4.151540    5.314514   18.555992    ( 0.0000,  0.0000,  0.0000)
  33 Cu     6.739996    5.329858   18.549702    ( 0.0000,  0.0000,  0.0000)
  34 Cu     8.143260    6.023647   20.654777    ( 0.0000,  0.0000,  0.0000)
  35 Cu     5.439102    6.017162   20.758935    ( 0.0000,  0.0000,  0.0000)
  36 Cu     5.501869    0.088055   10.149251    ( 0.0000,  0.0000,  0.0000)
  37 Cu     6.716982    2.319968    9.907384    ( 0.0000,  0.0000,  0.0000)
  38 Cu     8.065352    3.068878   12.066945    ( 0.0000,  0.0000,  0.0000)
  39 Cu     6.784848    0.821803   12.120958    ( 0.0000,  0.0000,  0.0000)
  40 Cu     8.071405    1.556616   14.250356    ( 0.0000,  0.0000,  0.0000)
  41 Cu     9.361002    3.815660   14.287755    ( 0.0000,  0.0000,  0.0000)
  42 Cu     5.446502    0.037315   16.423130    ( 0.0000,  0.0000,  0.0000)
  43 Cu     6.754567    2.288986   16.403250    ( 0.0000,  0.0000,  0.0000)
  44 Cu     8.058184    3.019926   18.517774    ( 0.0000,  0.0000,  0.0000)
  45 Cu     6.734221    0.786541   18.629863    ( 0.0000,  0.0000,  0.0000)
  46 Cu     8.055794    1.560684   20.799379    ( 0.0000,  0.0000,  0.0000)
  47 Cu     9.372120    3.699690   20.543920    ( 0.0000,  0.0000,  0.0000)
  48 Cu     8.037331    4.608677    9.980373    ( 0.0000,  0.0000,  0.0000)
  49 Cu     9.352172    5.327239   12.192733    ( 0.0000,  0.0000,  0.0000)
  50 Cu    10.689396    6.093735   14.280963    ( 0.0000,  0.0000,  0.0000)
  51 Cu     8.053620    4.564571   16.421516    ( 0.0000,  0.0000,  0.0000)
  52 Cu     9.378495    5.317293   18.533331    ( 0.0000,  0.0000,  0.0000)
  53 Cu    10.648089    6.039829   20.692446    ( 0.0000,  0.0000,  0.0000)
  54 Cl     7.052567    2.891396   22.560192    ( 0.0000,  0.0000,  0.0000)
  55 Cl     5.025148    2.586714    8.170250    ( 0.0000,  0.0000,  0.0000)
  56 Cl     9.572330    4.779215   22.488153    ( 0.0000,  0.0000,  0.0000)
  57 Cl     1.876772    0.826958    8.089667    ( 0.0000,  0.0000,  0.0000)
  58 Cl     8.523727    6.242063    8.221873    ( 0.0000,  0.0000,  0.0000)
  59 Cl     3.039023   -0.359005   22.547077    ( 0.0000,  0.0000,  0.0000)
  60 Cl     4.806241    4.825346   24.934044    ( 0.0000,  0.0000,  0.0000)
  61 Cl     6.261821    0.952200    5.745632    ( 0.0000,  0.0000,  0.0000)
  62 Cl     3.682655    5.350999    8.173364    ( 0.0000,  0.0000,  0.0000)
  63 Cl     7.927906   -0.041928   22.545044    ( 0.0000,  0.0000,  0.0000)
  64 Cl     3.984471    2.597287   22.505034    ( 0.0000,  0.0000,  0.0000)
  65 Cl     8.007793    3.256852    8.098831    ( 0.0000,  0.0000,  0.0000)

Unit cell:
           periodic     x           y           z      points  spacing
  1. axis:    yes    7.851007    0.000000    0.000000    45     0.1511
  2. axis:    yes    3.925503    6.799171    0.000000    45     0.1511
  3. axis:    yes    0.000000    0.000000   30.683867   175     0.1753

  Lengths:   7.851007   7.851006  30.683867
  Angles:   90.000000  90.000000  60.000001

Effective grid spacing dv^(1/3) = 0.1666

     iter     time        total  log10-change:
                         energy  eigst   dens
iter:   1 04:43:17 -4523.726659  -3.97
iter:   2 04:44:06 -4523.744011  -4.84  -3.41
iter:   3 04:45:03 -4523.731510c -6.08  -2.94
iter:   4 04:45:53 -4523.720039c -5.83  -3.17
iter:   5 04:46:43 -4523.724587c -5.89  -3.59
iter:   6 04:47:32 -4523.731266c -5.64  -3.40
iter:   7 04:48:22 -4523.725345c -6.57  -3.64
iter:   8 04:49:12 -4523.723489c -6.88  -3.97
iter:   9 04:50:03 -4523.724615c -6.75  -4.11c
iter:  10 04:51:00 -4523.723613c -6.93  -3.95
iter:  11 04:51:50 -4523.723595c -7.78c -4.50c

Converged after 11 iterations.

Dipole moment: (-15.065815, 12.723351, 0.002276) |e|*Ang

Energy contributions relative to reference atoms: (reference = -2581817.792169)

Kinetic:       +524.110719
Potential:     -547.599607
External:        +0.000000
XC:            -4499.186758
Entropy (-ST):   -0.875154
Local:           -0.610372
--------------------------
Free energy:   -4524.161172
Extrapolated:  -4523.723595

Showing only first 2 kpts
 Kpt  Band  Eigenvalues  Occupancy
  0   337     -0.10455    1.41088
  0   338     -0.02048    1.01632
  0   339      0.10468    0.45622
  0   340      0.12195    0.39829

  1   337     -0.24036    1.80608
  1   338     -0.20326    1.73069
  1   339     -0.12481    1.49146
  1   340     -0.07325    1.27306


Fermi level: -0.01722

No gap

Forces in eV/Ang:
  0 Cu   -0.00348   -0.00579    0.00881
  1 Cu    0.00455   -0.00560   -0.01342
  2 Cu    0.00092   -0.00097    0.00077
  3 Cu   -0.00468   -0.00012   -0.01037
  4 Cu   -0.00595   -0.00288    0.00279
  5 Cu   -0.00216    0.00018    0.00135
  6 Cu    0.00174   -0.00304   -0.00107
  7 Cu   -0.00062   -0.00014   -0.00667
  8 Cu    0.00569   -0.00258   -0.00061
  9 Cu    0.00241   -0.00622    0.00325
 10 Cu    0.00438   -0.00489   -0.00241
 11 Cu   -0.00045   -0.00549    0.00123
 12 Cu    0.00619   -0.00191   -0.00259
 13 Cu   -0.00242    0.00148    0.00135
 14 Cu   -0.00284    0.00163   -0.00054
 15 Cu    0.00104   -0.00615   -0.00271
 16 Cu   -0.00149    0.00310    0.00196
 17 Cu    0.00417    0.00351    0.00217
 18 Cu   -0.00294    0.00773    0.00467
 19 Cu    0.00431    0.00413   -0.00134
 20 Cu    0.00601    0.00156   -0.00300
 21 Cu    0.00524   -0.00128    0.00925
 22 Cu   -0.00435   -0.00013   -0.00700
 23 Cu    0.00149    0.01382   -0.00646
 24 Cu    0.00749    0.00338   -0.00630
 25 Cu   -0.00125    0.00251    0.00079
 26 Cu    0.00658   -0.00375    0.00269
 27 Cu   -0.00019   -0.00256    0.00041
 28 Cu   -0.00043   -0.00012   -0.01452
 29 Cu   -0.00001   -0.00433   -0.00344
 30 Cu   -0.00351    0.00153   -0.00165
 31 Cu   -0.00191   -0.00335    0.00261
 32 Cu   -0.00412    0.00395    0.01080
 33 Cu    0.00072    0.00179    0.00145
 34 Cu   -0.00144    0.00499   -0.00637
 35 Cu    0.00526    0.00561    0.00248
 36 Cu    0.00948    0.01153    0.01096
 37 Cu   -0.00425    0.00299   -0.00274
 38 Cu   -0.00263   -0.00291   -0.00459
 39 Cu    0.00535    0.00016    0.00034
 40 Cu    0.00661    0.00242   -0.00336
 41 Cu    0.00265   -0.00093   -0.00269
 42 Cu    0.00022    0.00107   -0.00271
 43 Cu   -0.00134    0.00175    0.00424
 44 Cu   -0.00528    0.00541    0.00130
 45 Cu   -0.00810    0.00458    0.00192
 46 Cu   -0.00657   -0.00835   -0.00179
 47 Cu   -0.01063   -0.00255   -0.00518
 48 Cu    0.00290   -0.00242    0.00946
 49 Cu   -0.00063    0.00316   -0.00212
 50 Cu    0.00152   -0.00049   -0.00274
 51 Cu    0.00216   -0.00051   -0.00754
 52 Cu    0.00020    0.00033   -0.00075
 53 Cu   -0.00526    0.01219    0.00616
 54 Cl   -0.00288    0.00559   -0.01248
 55 Cl   -0.00663    0.00050    0.01090
 56 Cl   -0.00139   -0.00550    0.00033
 57 Cl   -0.00255   -0.00442    0.00644
 58 Cl    0.00191   -0.00550   -0.01419
 59 Cl   -0.00604   -0.00686    0.00078
 60 Cl    0.00405   -0.00090    0.01059
 61 Cl    0.01645   -0.02439   -0.00535
 62 Cl    0.00839   -0.00047   -0.00673
 63 Cl   -0.00627    0.01176    0.00872
 64 Cl    0.01082   -0.01613    0.01353
 65 Cl    0.00122   -0.00523    0.00682

Timing:                                      incl.     excl.
-------------------------------------------------------------------
Density initialized from wave functions:   254.950   254.948   0.5% |
 Symmetrize density:                         0.002     0.002   0.0% |
Forces:                                   1017.237  1017.237   1.8% ||
Hamiltonian:                               430.765     0.993   0.0% |
 Atomic:                                    19.766     7.389   0.0% |
  XC Correction:                            12.377    12.377   0.0% |
 Calculate atomic Hamiltonians:             96.119    96.119   0.2% |
 Communicate:                                4.119     4.119   0.0% |
 Initialize Hamiltonian:                     0.001     0.001   0.0% |
 Poisson:                                    0.272     0.272   0.0% |
 XC 3D grid:                               309.494    43.113   0.1% |
  VdW-DF integral:                         266.382     9.923   0.0% |
   Convolution:                             16.173    16.173   0.0% |
   FFT:                                      7.999     7.999   0.0% |
   gather:                                 108.222   108.222   0.2% |
   hmm1:                                     5.461     5.461   0.0% |
   hmm2:                                    12.274    12.274   0.0% |
   iFFT:                                     8.609     8.609   0.0% |
   potential:                               94.099     1.056   0.0% |
    collect:                                14.980    14.980   0.0% |
    p1:                                     40.724    40.724   0.1% |
    p2:                                     16.579    16.579   0.0% |
    sum:                                    20.760    20.760   0.0% |
   splines:                                  3.622     3.622   0.0% |
LCAO initialization:                       236.836     0.501   0.0% |
 LCAO eigensolver:                          13.475     0.002   0.0% |
  Blacs Orbital Layouts:                     0.972     0.001   0.0% |
   General diagonalize:                      0.958     0.958   0.0% |
   Redistribute coefs:                       0.009     0.009   0.0% |
   Send coefs to domains:                    0.004     0.004   0.0% |
  Calculate projections:                     0.019     0.019   0.0% |
  Distribute overlap matrix:                12.103     0.001   0.0% |
   Scalapack redistribute:                   0.018     0.018   0.0% |
   blocked summation:                       12.083    12.083   0.0% |
  Potential matrix:                          0.240     0.240   0.0% |
  SparseAtomicCorrection:                    0.024     0.024   0.0% |
  Sum over cells:                            0.114     0.114   0.0% |
 LCAO to grid:                             220.062   220.062   0.4% |
 Set positions (LCAO WFS):                   2.798     0.043   0.0% |
  Basic WFS set positions:                   0.003     0.003   0.0% |
  Basis functions set positions:             0.000     0.000   0.0% |
  P tci:                                     0.058     0.058   0.0% |
  ST tci:                                    0.438     0.438   0.0% |
  Scalapack redistribute:                    0.027     0.027   0.0% |
  blocked summation:                         2.073     2.073   0.0% |
  mktci:                                     0.156     0.156   0.0% |
PWDescriptor:                                0.586     0.586   0.0% |
Redistribute:                                0.126     0.126   0.0% |
SCF-cycle:                               53729.190  2802.772   5.0% |-|
 Davidson:                               37293.935  8619.191  15.4% |-----|
  Apply H:                                4266.366  4198.922   7.5% |--|
   HMM T:                                   67.444    67.444   0.1% |
  Subspace diag:                          6638.548     0.207   0.0% |
   calc_h_matrix:                         5115.026   902.783   1.6% ||
    Apply H:                              4212.244  4140.902   7.4% |--|
     HMM T:                                 71.341    71.341   0.1% |
   diagonalize:                            227.090   227.090   0.4% |
   rotate_psi:                            1296.225  1296.225   2.3% ||
  calc. matrices:                        14143.937  5844.596  10.4% |---|
   Apply H:                               8299.341  8165.424  14.6% |-----|
    HMM T:                                 133.917   133.917   0.2% |
  diagonalize:                            1278.065  1278.065   2.3% ||
  rotate_psi:                             2347.829  2347.829   4.2% |-|
 Density:                                 4780.189     0.044   0.0% |
  Atomic density matrices:                  28.206    28.206   0.1% |
  Mix:                                    2214.455  2214.455   4.0% |-|
  Multipole moments:                         1.001     1.001   0.0% |
  Pseudo density:                         2536.483  2536.443   4.5% |-|
   Symmetrize density:                       0.040     0.040   0.0% |
 Hamiltonian:                             8676.499    18.457   0.0% |
  Atomic:                                  384.114   157.450   0.3% |
   XC Correction:                          226.664   226.664   0.4% |
  Calculate atomic Hamiltonians:          1831.646  1831.646   3.3% ||
  Communicate:                              94.225    94.225   0.2% |
  Poisson:                                   5.222     5.222   0.0% |
  XC 3D grid:                             6342.835   878.516   1.6% ||
   VdW-DF integral:                       5464.319   191.683   0.3% |
    Convolution:                           305.940   305.940   0.5% |
    FFT:                                   153.262   153.262   0.3% |
    gather:                               2539.415  2539.415   4.5% |-|
    hmm1:                                  100.639   100.639   0.2% |
    hmm2:                                  223.068   223.068   0.4% |
    iFFT:                                  158.061   158.061   0.3% |
    potential:                            1792.239    20.176   0.0% |
     collect:                              293.425   293.425   0.5% |
     p1:                                   748.294   748.294   1.3% ||
     p2:                                   314.185   314.185   0.6% |
     sum:                                  416.158   416.158   0.7% |
    splines:                                 0.011     0.011   0.0% |
 Orthonormalize:                           175.795     0.020   0.0% |
  calc_s_matrix:                            22.698    22.698   0.0% |
  inverse-cholesky:                          7.522     7.522   0.0% |
  projections:                             110.776   110.776   0.2% |
  rotate_psi_s:                             34.778    34.778   0.1% |
Set symmetry:                                0.001     0.001   0.0% |
Other:                                     288.435   288.435   0.5% |
-------------------------------------------------------------------
Total:                                             55958.126 100.0%

Memory usage: 1.26 GiB
Date: Tue Oct 18 04:52:09 2022
