
  ___ ___ ___ _ _ _  
 |   |   |_  | | | | 
 | | | | | . | | | | 
 |__ |  _|___|_____|  22.1.0
 |___|_|             

User:   thorkong@node427.cluster
Date:   Tue Oct 18 21:15:39 2022
Arch:   x86_64
Pid:    6624
Python: 3.10.5
gpaw:   /groups/kemi/thorkong/miniconda3/envs/gpaw22/lib/python3.10/site-packages/gpaw
_gpaw:  /groups/kemi/thorkong/miniconda3/envs/gpaw22/lib/python3.10/site-packages/
        _gpaw.cpython-310-x86_64-linux-gnu.so
ase:    /groups/kemi/thorkong/miniconda3/envs/gpaw22/lib/python3.10/site-packages/ase (version 3.22.1)
numpy:  /groups/kemi/thorkong/miniconda3/envs/gpaw22/lib/python3.10/site-packages/numpy (version 1.23.0)
scipy:  /groups/kemi/thorkong/miniconda3/envs/gpaw22/lib/python3.10/site-packages/scipy (version 1.8.1)
libxc:  5.2.3
units:  Angstrom and eV
cores: 32
OpenMP: True
OMP_NUM_THREADS: 1

Input parameters:
  basis: dzp
  kpts: [4 4 1]
  mode: {ecut: 600.0,
         name: pw}
  xc: BEEF-vdW

System changes: positions, numbers, cell, pbc, initial_charges, initial_magmoms 

Initialize ...

Cu-setup:
  name: Copper
  id: f1c4d45d90492f1bbfdcb091e8418fdf
  Z: 29.0
  valence: 11
  core: 18
  charge: 0.0
  file: /groups/kemi/thorkong/miniconda3/envs/gpaw22/share/gpaw/Cu.PBE.gz
  compensation charges: gauss, rc=0.33, lmax=2
  cutoffs: 2.06(filt), 2.43(core),
  valence states:
                energy  radius
    4s(1.00)    -4.609   1.164
    4p(0.00)    -0.698   1.164
    3d(10.00)    -5.039   1.058
    *s          22.603   1.164
    *p          26.513   1.164
    *d          22.172   1.058

  LCAO basis set for Cu:
    Name: dzp
    File: /groups/kemi/thorkong/miniconda3/envs/gpaw22/share/gpaw/Cu.dzp.basis.gz
    Number of radial functions: 5
    Number of spherical harmonics: 15
      l=0, rc=8.9688 Bohr: 4s-sz confined orbital
      l=2, rc=5.1719 Bohr: 3d-sz confined orbital
      l=0, rc=5.3281 Bohr: 4s-dz split-valence wave
      l=2, rc=3.1406 Bohr: 3d-dz split-valence wave
      l=1, rc=8.9688 Bohr: p-type Gaussian polarization

Cl-setup:
  name: Chlorine
  id: 726897f06f34e53cf8e33b5885a02604
  Z: 17.0
  valence: 7
  core: 10
  charge: 0.0
  file: /groups/kemi/thorkong/miniconda3/envs/gpaw22/share/gpaw/Cl.PBE.gz
  compensation charges: gauss, rc=0.25, lmax=2
  cutoffs: 1.40(filt), 1.49(core),
  valence states:
                energy  radius
    3s(2.00)   -20.689   0.794
    3p(5.00)    -8.594   0.794
    *s           6.523   0.794
    *p          18.617   0.794
    *d           0.000   0.794

  LCAO basis set for Cl:
    Name: dzp
    File: /groups/kemi/thorkong/miniconda3/envs/gpaw22/share/gpaw/Cl.dzp.basis.gz
    Number of radial functions: 5
    Number of spherical harmonics: 13
      l=0, rc=5.1719 Bohr: 3s-sz confined orbital
      l=1, rc=6.2656 Bohr: 3p-sz confined orbital
      l=0, rc=2.8281 Bohr: 3s-dz split-valence wave
      l=1, rc=3.5156 Bohr: 3p-dz split-valence wave
      l=2, rc=6.2656 Bohr: d-type Gaussian polarization

Reference energy: -4497828.668287

Spin-paired calculation

Convergence criteria:
 Maximum [total energy] change in last 3 cyles: 0.0005 eV / electron
 Maximum integral of absolute [dens]ity change: 0.0001 electrons / valence electron
 Maximum integral of absolute [eigenst]ate change: 4e-08 eV^2 / valence electron
 Maximum number of scf [iter]ations: 333
 (Square brackets indicate name in SCF output, whereas a 'c' in
 the SCF output indicates the quantity has converged.)

Symmetries present (total): 1

  ( 1  0  0)
  ( 0  1  0)
  ( 0  0  1)

16 k-points: 4 x 4 x 1 Monkhorst-Pack grid
8 k-points in the irreducible part of the Brillouin zone
       k-points in crystal coordinates                weights
   0:     0.12500000   -0.37500000    0.00000000          2/16
   1:     0.12500000   -0.12500000    0.00000000          2/16
   2:     0.12500000    0.12500000    0.00000000          2/16
   3:     0.12500000    0.37500000    0.00000000          2/16
   4:     0.37500000   -0.37500000    0.00000000          2/16
   5:     0.37500000   -0.12500000    0.00000000          2/16
   6:     0.37500000    0.12500000    0.00000000          2/16
   7:     0.37500000    0.37500000    0.00000000          2/16

Wave functions: Plane wave expansion
  Cutoff energy: 600.000 eV
  Number of coefficients (min, max): 96699, 96750
  Pulay-stress correction: 0.000000 eV/Ang^3 (de/decut=0.000000)
  Using FFTW library
  ScaLapack parameters: grid=2x2, blocksize=64
  Wavefunction extrapolation:
    Improved wavefunction reuse through dual PAW basis 

Occupation numbers: Fermi-Dirac: width=0.1000 eV
 

Eigensolver
   Davidson(niter=2) 

Densities:
  Coarse grid: 70*42*192 grid
  Fine grid: 140*84*384 grid
  Total Charge: 0.000000 

Density mixing:
  Method: separate
  Backend: pulay
  Linear mixing parameter: 0.05
  Mixing with 5 old densities
  Damping of long wave oscillations: 50 

Hamiltonian:
  XC and Coulomb potentials evaluated on a 140*84*384 grid
  Using the BEEF-vdW Exchange-Correlation functional
  External potential:
    NoExternalPotential
 

XC parameters: BEEF-vdW with 2 nearest neighbor stencil

Memory estimate:
  Process memory now: 344.41 MiB
  Calculator: 2260.37 MiB
    Density: 70.86 MiB
      Arrays: 27.99 MiB
      Localized functions: 32.10 MiB
      Mixer: 10.77 MiB
    Hamiltonian: 19.09 MiB
      Arrays: 18.30 MiB
      XC: 0.00 MiB
      Poisson: 0.00 MiB
      vbar: 0.78 MiB
    Wavefunctions: 2170.42 MiB
      Arrays psit_nG: 1028.97 MiB
      Eigensolver: 1110.50 MiB
      Projections: 5.08 MiB
      Projectors: 3.69 MiB
      PW-descriptor: 22.18 MiB

Total number of cores used: 32
Parallelization over k-points: 8
Domain decomposition: 1 x 1 x 4
                      2 x 2 x 8 (xc only)

Number of atoms: 110
Number of atomic orbitals: 1622
Number of bands in calculation: 697
Number of valence electrons: 1154
Bands to converge: occupied

... initialized

Initializing position-dependent things.

Density initialized from atomic densities
Creating initial wave functions:
  697 bands from LCAO basis set

      .----------------------------.  
     /|                            |  
    / |                            |  
   /  |                            |  
  /   |                            |  
 *    |                            |  
 |    |                            |  
 |    |                            |  
 |    |                            |  
 |    |                            |  
 |    |                            |  
 |    |                            |  
 |    |Cl             Cl           |  
 |    |      CCl   Cu      Clu     |  
 |    |       Cu                   |  
 |  Cl| Cu Cl    Cu    CuCl    Cu  |  
 |    |    Cu    Cu   Cu Cu    Cu  |  
 |    |    Cu             Cu       |  
 |   CCu   Cu       Cu    Cu Cu    |  
 |   Cu       Cu    Cu CuCu  Cu    |  
 |    |  Cu   Cu       Cu    Cu   Cu  
 | Cu | Cu    Cu       Cu    Cu    |  
 | Cu | Cu  CuCu Cu    Cu Cu       |  
 |    | Cu  Cu   Cu    Cu Cu    Cu |  
 |    Cu   Cu    Cu       Cu    Cu |  
 |    Cu   Cu  Cu   Cu    Cu       |  
 |    Cu       Cu   Cu       Cu    |  
 |    |  Cu   Cu       Cu    Cu    |  
 |    |  Cu   Cu       Cu    Cu    |  
 | Cu |  Cu       Cu      Cu Cu    |  
 |    |     Cu   Cu  ClCu Cu    Cu |  
 |    Cu    Cu       Cu    Cu      |  
 |    Cu    Cl Cu  ClCu    ClCu    |  
 |    |                            |  
 |    |  CCu             Cl        |  
 Cl   |                            |  
 |    |                            |  
 |    |                            |  
 |    |                            |  
 |    |                            |  
 |    |                            |  
 |    .----------------------------.  
 |   /                            /   
 |  /                            /    
 | /                            /     
 |/                            /      
 *----------------------------*       

Positions:
   0 Cu     3.465502    0.000521    9.879728    ( 0.0000,  0.0000,  0.0000)
   1 Cu     1.494972    1.798403   10.446506    ( 0.0000,  0.0000,  0.0000)
   2 Cu     7.408625    1.864749   10.386832    ( 0.0000,  0.0000,  0.0000)
   3 Cu     9.219219   -0.010171    9.930850    ( 0.0000,  0.0000,  0.0000)
   4 Cu    11.422607    0.000289   11.276781    ( 0.0000,  0.0000,  0.0000)
   5 Cu     9.712776    1.888604   11.760984    ( 0.0000,  0.0000,  0.0000)
   6 Cu     3.834346    1.830736   11.795472    ( 0.0000,  0.0000,  0.0000)
   7 Cu     5.618473    0.005963   11.278363    ( 0.0000,  0.0000,  0.0000)
   8 Cu     7.999958    0.001129   12.287631    ( 0.0000,  0.0000,  0.0000)
   9 Cu     6.227178    1.856329   12.926755    ( 0.0000,  0.0000,  0.0000)
  10 Cu     0.389452    1.848977   12.914126    ( 0.0000,  0.0000,  0.0000)
  11 Cu     2.141370    0.003357   12.295076    ( 0.0000,  0.0000,  0.0000)
  12 Cu     4.435714   -0.002494   13.524340    ( 0.0000,  0.0000,  0.0000)
  13 Cu     2.666732    1.862959   14.119232    ( 0.0000,  0.0000,  0.0000)
  14 Cu     8.480572    1.854473   14.114805    ( 0.0000,  0.0000,  0.0000)
  15 Cu    10.274446    0.007248   13.496526    ( 0.0000,  0.0000,  0.0000)
  16 Cu     0.889000   -0.003861   14.679570    ( 0.0000,  0.0000,  0.0000)
  17 Cu    10.813629    1.848304   15.251975    ( 0.0000,  0.0000,  0.0000)
  18 Cu     4.970476    1.864752   15.272273    ( 0.0000,  0.0000,  0.0000)
  19 Cu     6.743896   -0.002232   14.672356    ( 0.0000,  0.0000,  0.0000)
  20 Cu     9.061017    0.002519   15.840189    ( 0.0000,  0.0000,  0.0000)
  21 Cu     7.271249    1.845794   16.461958    ( 0.0000,  0.0000,  0.0000)
  22 Cu     1.422921    1.856211   16.438700    ( 0.0000,  0.0000,  0.0000)
  23 Cu     3.196914   -0.003844   15.845571    ( 0.0000,  0.0000,  0.0000)
  24 Cu     5.527099    0.007921   17.006043    ( 0.0000,  0.0000,  0.0000)
  25 Cu     3.736238    1.845668   17.616119    ( 0.0000,  0.0000,  0.0000)
  26 Cu     9.614775    1.854130   17.598857    ( 0.0000,  0.0000,  0.0000)
  27 Cu    11.378332   -0.005512   17.009271    ( 0.0000,  0.0000,  0.0000)
  28 Cu     1.978569    0.012805   18.192867    ( 0.0000,  0.0000,  0.0000)
  29 Cu     0.205827    1.851422   18.790435    ( 0.0000,  0.0000,  0.0000)
  30 Cu     6.057099    1.848613   18.793491    ( 0.0000,  0.0000,  0.0000)
  31 Cu     7.855852   -0.000230   18.216782    ( 0.0000,  0.0000,  0.0000)
  32 Cu    10.180663    0.005174   19.344298    ( 0.0000,  0.0000,  0.0000)
  33 Cu     8.393089    1.860782   19.941004    ( 0.0000,  0.0000,  0.0000)
  34 Cu     2.526552    1.848414   19.973315    ( 0.0000,  0.0000,  0.0000)
  35 Cu     4.297430    0.010247   19.334335    ( 0.0000,  0.0000,  0.0000)
  36 Cu     6.568504   -0.002008   20.550573    ( 0.0000,  0.0000,  0.0000)
  37 Cu     4.846841    1.852075   21.195080    ( 0.0000,  0.0000,  0.0000)
  38 Cu    10.679636    1.849344   21.196199    ( 0.0000,  0.0000,  0.0000)
  39 Cu     0.733506    0.006798   20.545116    ( 0.0000,  0.0000,  0.0000)
  40 Cu     3.130264   -0.022633   21.659230    ( 0.0000,  0.0000,  0.0000)
  41 Cu     1.366735    1.854920   22.163280    ( 0.0000,  0.0000,  0.0000)
  42 Cu     7.118988    1.849222   22.225184    ( 0.0000,  0.0000,  0.0000)
  43 Cu     8.952385    0.041895   21.677749    ( 0.0000,  0.0000,  0.0000)
  44 Cu    11.256658    0.013576   23.075776    ( 0.0000,  0.0000,  0.0000)
  45 Cu     9.245296    1.849281   23.539771    ( 0.0000,  0.0000,  0.0000)
  46 Cu     3.558160    1.842754   23.420670    ( 0.0000,  0.0000,  0.0000)
  47 Cu     5.460553   -0.057062   23.012070    ( 0.0000,  0.0000,  0.0000)
  48 Cu     3.402609    3.708255   10.038253    ( 0.0000,  0.0000,  0.0000)
  49 Cu     1.499143    5.608173   10.446119    ( 0.0000,  0.0000,  0.0000)
  50 Cu     7.407273    5.537476   10.380231    ( 0.0000,  0.0000,  0.0000)
  51 Cu     9.418224    3.702029    9.920204    ( 0.0000,  0.0000,  0.0000)
  52 Cu    11.545089    3.702497   11.233025    ( 0.0000,  0.0000,  0.0000)
  53 Cu     9.711405    5.508999   11.781241    ( 0.0000,  0.0000,  0.0000)
  54 Cu     3.829171    5.574636   11.799318    ( 0.0000,  0.0000,  0.0000)
  55 Cu     5.592021    3.696635   11.295814    ( 0.0000,  0.0000,  0.0000)
  56 Cu     7.983635    3.702093   12.261156    ( 0.0000,  0.0000,  0.0000)
  57 Cu     6.226721    5.544825   12.912844    ( 0.0000,  0.0000,  0.0000)
  58 Cu     0.391453    5.553139   12.907701    ( 0.0000,  0.0000,  0.0000)
  59 Cu     2.113764    3.699505   12.262491    ( 0.0000,  0.0000,  0.0000)
  60 Cu     4.431793    3.703014   13.486221    ( 0.0000,  0.0000,  0.0000)
  61 Cu     2.661635    5.540981   14.124197    ( 0.0000,  0.0000,  0.0000)
  62 Cu     8.481532    5.546404   14.114509    ( 0.0000,  0.0000,  0.0000)
  63 Cu    10.269570    3.690807   13.518569    ( 0.0000,  0.0000,  0.0000)
  64 Cu     0.902623    3.702746   14.664096    ( 0.0000,  0.0000,  0.0000)
  65 Cu    10.807319    5.551796   15.242341    ( 0.0000,  0.0000,  0.0000)
  66 Cu     4.980644    5.538527   15.266044    ( 0.0000,  0.0000,  0.0000)
  67 Cu     6.752883    3.700068   14.666915    ( 0.0000,  0.0000,  0.0000)
  68 Cu     9.047682    3.697396   15.860582    ( 0.0000,  0.0000,  0.0000)
  69 Cu     7.284799    5.556832   16.450174    ( 0.0000,  0.0000,  0.0000)
  70 Cu     1.432852    5.543339   16.452787    ( 0.0000,  0.0000,  0.0000)
  71 Cu     3.223189    3.705730   15.843531    ( 0.0000,  0.0000,  0.0000)
  72 Cu     5.537159    3.695425   17.020591    ( 0.0000,  0.0000,  0.0000)
  73 Cu     3.762834    5.555339   17.613771    ( 0.0000,  0.0000,  0.0000)
  74 Cu     9.602030    5.548905   17.619128    ( 0.0000,  0.0000,  0.0000)
  75 Cu    11.391738    3.705798   16.996871    ( 0.0000,  0.0000,  0.0000)
  76 Cu     1.988594    3.686847   18.186696    ( 0.0000,  0.0000,  0.0000)
  77 Cu     0.215169    5.553707   18.785649    ( 0.0000,  0.0000,  0.0000)
  78 Cu     6.069986    5.555512   18.779136    ( 0.0000,  0.0000,  0.0000)
  79 Cu     7.849680    3.703127   18.207466    ( 0.0000,  0.0000,  0.0000)
  80 Cu    10.181859    3.696808   19.344089    ( 0.0000,  0.0000,  0.0000)
  81 Cu     8.387965    5.544185   19.962949    ( 0.0000,  0.0000,  0.0000)
  82 Cu     2.522827    5.554038   19.935796    ( 0.0000,  0.0000,  0.0000)
  83 Cu     4.292164    3.688772   19.339247    ( 0.0000,  0.0000,  0.0000)
  84 Cu     6.570396    3.702941   20.543723    ( 0.0000,  0.0000,  0.0000)
  85 Cu     4.817890    5.548040   21.163479    ( 0.0000,  0.0000,  0.0000)
  86 Cu    10.663499    5.550302   21.169496    ( 0.0000,  0.0000,  0.0000)
  87 Cu     0.733239    3.695042   20.531129    ( 0.0000,  0.0000,  0.0000)
  88 Cu     3.125056    3.720169   21.663191    ( 0.0000,  0.0000,  0.0000)
  89 Cu     1.341318    5.545453   22.180257    ( 0.0000,  0.0000,  0.0000)
  90 Cu     7.240804    5.550912   22.181081    ( 0.0000,  0.0000,  0.0000)
  91 Cu     8.951094    3.663510   21.698275    ( 0.0000,  0.0000,  0.0000)
  92 Cu    11.255173    3.687053   23.069299    ( 0.0000,  0.0000,  0.0000)
  93 Cu     9.445513    5.561896   23.529053    ( 0.0000,  0.0000,  0.0000)
  94 Cu     3.494717    5.551347   23.580310    ( 0.0000,  0.0000,  0.0000)
  95 Cu     5.464606    3.753300   23.011922    ( 0.0000,  0.0000,  0.0000)
  96 Cl     9.619244    3.658167   24.973529    ( 0.0000,  0.0000,  0.0000)
  97 Cl     6.774357    5.543596   24.406824    ( 0.0000,  0.0000,  0.0000)
  98 Cl     4.093507    3.620290   24.920071    ( 0.0000,  0.0000,  0.0000)
  99 Cl     4.108706    0.072304   24.922092    ( 0.0000,  0.0000,  0.0000)
 100 Cl     9.593371    0.040947   24.980899    ( 0.0000,  0.0000,  0.0000)
 101 Cl    12.587681    5.562883   24.421757    ( 0.0000,  0.0000,  0.0000)
 102 Cl    12.599564    1.841414   24.378432    ( 0.0000,  0.0000,  0.0000)
 103 Cl     6.064332    3.710022    9.083888    ( 0.0000,  0.0000,  0.0000)
 104 Cl     6.077123   -0.011444    9.040556    ( 0.0000,  0.0000,  0.0000)
 105 Cl     2.865421    1.931861    8.539342    ( 0.0000,  0.0000,  0.0000)
 106 Cl     2.850241    5.478499    8.538085    ( 0.0000,  0.0000,  0.0000)
 107 Cl     0.185561    0.008256    9.055918    ( 0.0000,  0.0000,  0.0000)
 108 Cl    -2.662199    1.893728    8.485833    ( 0.0000,  0.0000,  0.0000)
 109 Cl    -2.636091    5.509966    8.478711    ( 0.0000,  0.0000,  0.0000)

Unit cell:
           periodic     x           y           z      points  spacing
  1. axis:    yes   11.703590    0.000000    0.000000    70     0.1672
  2. axis:    yes    0.000000    7.402000    0.000000    42     0.1762
  3. axis:    no     0.000000    0.000000   33.459128   192     0.1743

  Lengths:  11.703590   7.402000  33.459128
  Angles:   90.000000  90.000000  90.000000

Effective grid spacing dv^(1/3) = 0.1725

     iter     time        total  log10-change:
                         energy  eigst   dens
iter:   1 21:44:21 -8550.092391
iter:   2 21:48:41 -10334.740109  +1.74  -0.71
iter:   3 21:53:01 -8026.171184  +1.65  -0.55
iter:   4 21:57:21 -7901.538405  -0.26  -1.10
iter:   5 22:01:40 -8058.138382  -0.90  -1.25
iter:   6 22:05:58 -7866.228060  -1.40  -1.05
iter:   7 22:10:16 -7836.326306  -1.81  -1.33
iter:   8 22:14:35 -7814.032720  -1.52  -1.44
iter:   9 22:18:50 -7795.364538  -1.96  -1.53
iter:  10 22:23:06 -7792.241292  -2.25  -1.64
iter:  11 22:27:22 -7791.150669  -2.05  -1.67
iter:  12 22:31:37 -7792.219126  -1.74  -1.73
iter:  13 22:35:54 -7790.165286  -2.36  -1.87
iter:  14 22:46:22 -7788.640906  -2.38  -1.99
iter:  15 22:50:51 -7787.877746  -2.49  -2.11
iter:  16 22:55:20 -7787.856735  -2.70  -2.24
iter:  17 22:59:47 -7787.652581c -3.44  -2.38
iter:  18 23:04:15 -7787.527588c -4.03  -2.48
iter:  19 23:08:42 -7787.375212c -2.70  -2.53
iter:  20 23:13:10 -7787.275868c -4.01  -2.85
iter:  21 23:17:40 -7787.266992c -4.40  -3.09
iter:  22 23:22:07 -7787.261606c -4.49  -3.30
iter:  23 23:26:33 -7787.262927c -5.08  -3.42
iter:  24 23:30:58 -7787.264126c -5.49  -3.45
iter:  25 23:35:24 -7787.260430c -5.26  -3.47
iter:  26 23:39:49 -7787.261036c -5.25  -3.65
iter:  27 23:44:14 -7787.260491c -6.46  -3.85
iter:  28 23:48:39 -7787.259658c -5.52  -3.91
iter:  29 23:53:04 -7787.259750c -5.88  -4.03c
iter:  30 23:57:30 -7787.260013c -6.62  -4.14c
iter:  31 00:01:55 -7787.259612c -6.76  -4.04c
iter:  32 00:06:21 -7787.259439c -6.80  -4.38c
iter:  33 00:10:48 -7787.259429c -6.92  -4.50c
iter:  34 00:15:14 -7787.259463c -6.75  -4.55c
iter:  35 00:19:40 -7787.259480c -7.75c -4.68c

Converged after 35 iterations.

Dipole moment: (-16.035940, -9.411363, -0.007859) |e|*Ang

Energy contributions relative to reference atoms: (reference = -4497828.668287)

Kinetic:       +822.810770
Potential:     -888.000692
External:        +0.000000
XC:            -7720.190439
Entropy (-ST):   -0.949796
Local:           -1.404221
--------------------------
Free energy:   -7787.734378
Extrapolated:  -7787.259480

Showing only first 2 kpts
 Kpt  Band  Eigenvalues  Occupancy
  0   575      0.30883    0.84757
  0   576      0.35577    0.63012
  0   577      0.40014    0.45577
  0   578      0.49090    0.21283

  1   575     -0.04859    1.92656
  1   576      0.00519    1.87746
  1   577      0.11706    1.66696
  1   578      0.20065    1.36901


Fermi level: 0.27811

No gap

Forces in eV/Ang:
  0 Cu    0.06410    0.00337    0.05376
  1 Cu   -0.06597    0.03071    0.20991
  2 Cu   -0.12821    0.02876    0.08108
  3 Cu    0.18473    0.02245    0.01927
  4 Cu    0.02503   -0.00523   -0.01254
  5 Cu   -0.01977   -0.04452   -0.06663
  6 Cu    0.01135   -0.01007   -0.07884
  7 Cu    0.00130   -0.00056   -0.03449
  8 Cu   -0.03511   -0.00378   -0.09272
  9 Cu   -0.00262   -0.05462   -0.06294
 10 Cu   -0.04450   -0.01470   -0.06664
 11 Cu   -0.06780   -0.00489    0.05978
 12 Cu   -0.03262    0.01619   -0.03413
 13 Cu   -0.08780   -0.03602   -0.01331
 14 Cu    0.09626   -0.01533   -0.06659
 15 Cu   -0.03085   -0.02492    0.05400
 16 Cu    0.03626    0.00654   -0.02223
 17 Cu    0.06646    0.01939   -0.02813
 18 Cu    0.02886   -0.05346   -0.01686
 19 Cu    0.01265    0.01122    0.02004
 20 Cu   -0.03549   -0.01474    0.03107
 21 Cu    0.09402    0.00061   -0.06139
 22 Cu    0.03380   -0.02748   -0.00297
 23 Cu    0.06716    0.01078   -0.00216
 24 Cu   -0.01039   -0.03480    0.03183
 25 Cu    0.03304    0.01487   -0.03536
 26 Cu   -0.02913   -0.01892    0.02255
 27 Cu   -0.02663    0.00386   -0.02194
 28 Cu    0.00244   -0.04605    0.00849
 29 Cu    0.04584   -0.00713   -0.05338
 30 Cu    0.01234   -0.00180   -0.05610
 31 Cu   -0.08638    0.01797   -0.02664
 32 Cu   -0.08379   -0.01370    0.06973
 33 Cu   -0.00567   -0.03094    0.01231
 34 Cu    0.09633    0.00540   -0.13638
 35 Cu    0.06285   -0.02661    0.03492
 36 Cu    0.05781   -0.01243    0.03854
 37 Cu   -0.05783   -0.00573   -0.05470
 38 Cu    0.03977    0.01707   -0.02340
 39 Cu   -0.02010   -0.06010    0.02838
 40 Cu   -0.02975   -0.00435    0.07888
 41 Cu   -0.08219    0.00354    0.10190
 42 Cu    0.08997    0.00295   -0.09047
 43 Cu    0.01218   -0.06048    0.11719
 44 Cu    0.12561    0.04124   -0.07889
 45 Cu    0.13349   -0.01792   -0.08537
 46 Cu    0.08156    0.01374    0.15968
 47 Cu    0.09647    0.03091   -0.22720
 48 Cu   -0.08620   -0.01333   -0.15789
 49 Cu   -0.09682   -0.03306    0.23658
 50 Cu   -0.12776   -0.04002    0.08801
 51 Cu   -0.13139    0.01775    0.08370
 52 Cu   -0.09061   -0.00341    0.09266
 53 Cu   -0.01197    0.06258   -0.11503
 54 Cu    0.03101    0.00432   -0.07483
 55 Cu    0.08139   -0.00398   -0.08224
 56 Cu   -0.04067   -0.01689    0.02898
 57 Cu    0.01467    0.05984   -0.02537
 58 Cu   -0.06048    0.01516   -0.03646
 59 Cu    0.05309    0.00533    0.05768
 60 Cu   -0.09024   -0.00538    0.13183
 61 Cu   -0.06199    0.02812   -0.03120
 62 Cu    0.08787    0.01318   -0.06655
 63 Cu    0.00704    0.03043   -0.01238
 64 Cu   -0.01392    0.00188    0.06196
 65 Cu    0.08472   -0.01893    0.02504
 66 Cu   -0.00057    0.04558   -0.00749
 67 Cu   -0.04309    0.00719    0.06097
 68 Cu    0.02922    0.01885   -0.02583
 69 Cu    0.02626   -0.00324    0.01787
 70 Cu    0.00970    0.03554   -0.03279
 71 Cu   -0.03272   -0.01474    0.03416
 72 Cu   -0.03543    0.02702   -0.00005
 73 Cu   -0.06906   -0.01077    0.00135
 74 Cu    0.03319    0.01471   -0.03249
 75 Cu   -0.09403   -0.00099    0.05886
 76 Cu   -0.02678    0.05394    0.01798
 77 Cu   -0.01126   -0.01153   -0.01484
 78 Cu   -0.03451   -0.00677    0.02253
 79 Cu   -0.06885   -0.01858    0.02564
 80 Cu   -0.09260    0.01635    0.06948
 81 Cu    0.03608    0.02520   -0.05970
 82 Cu    0.03780   -0.01634    0.02618
 83 Cu    0.08907    0.03451    0.01704
 84 Cu    0.04180    0.01166    0.07014
 85 Cu    0.06661    0.00507   -0.05787
 86 Cu    0.03611    0.00397    0.09881
 87 Cu   -0.00347    0.05453    0.06608
 88 Cu   -0.00973    0.01023    0.08301
 89 Cu   -0.00547    0.00089    0.05402
 90 Cu   -0.03111    0.00563    0.04633
 91 Cu    0.02004    0.04194    0.06777
 92 Cu    0.12569   -0.02963   -0.07186
 93 Cu   -0.18724   -0.02300   -0.02184
 94 Cu   -0.06920   -0.00379   -0.05615
 95 Cu    0.06629   -0.02806   -0.20312
 96 Cl    0.03559    0.01069   -0.08925
 97 Cl    0.12960   -0.01560   -0.11314
 98 Cl   -0.12652    0.04447    0.04390
 99 Cl   -0.14236   -0.03281    0.08279
100 Cl    0.05415    0.01859   -0.06342
101 Cl    0.15232   -0.00695   -0.02237
102 Cl    0.00261    0.00139    0.01201
103 Cl   -0.00558   -0.00145   -0.04222
104 Cl   -0.15595    0.00695   -0.00665
105 Cl    0.12928   -0.04953   -0.05595
106 Cl    0.14628    0.03782   -0.09753
107 Cl   -0.12946    0.01577    0.07081
108 Cl   -0.02856   -0.01415    0.07868
109 Cl   -0.04741   -0.01427    0.05335

System changes: positions 

Initializing position-dependent things.

Density initialized from wave functions
      .----------------------------.  
     /|                            |  
    / |                            |  
   /  |                            |  
  /   |                            |  
 *    |                            |  
 |    |                            |  
 |    |                            |  
 |    |                            |  
 |    |                            |  
 |    |                            |  
 |    |                            |  
 |    |Cl             Cl           |  
 |    |      CCl    Cu     Clu     |  
 |    |       Cu                   |  
 |  Cl| Cu Cl    Cu    CuCl    Cu  |  
 |    |    Cu    Cu   Cu Cu    Cu  |  
 |    |    Cu             Cu       |  
 |   CCu   Cu       Cu    Cu Cu    |  
 |   Cu       Cu    Cu Cu    Cu    |  
 |    |  Cu   Cu       Cu    Cu   Cu  
 | Cu | Cu    Cu       Cu    Cu    |  
 | Cu | Cu  CuCu Cu    Cu Cu       |  
 |    | Cu  Cu   Cu    Cu Cu    Cu |  
 |    Cu   Cu    Cu Cu    Cu    Cu |  
 |    Cu   Cu  Cu   Cu    Cu       |  
 |    Cu       Cu   Cu       Cu    |  
 |    |  Cu   Cu       Cu    Cu   Cu  
 |    |  Cu   Cu       Cu    Cu    |  
 | Cu | Cu        Cu      Cu Cu    |  
 |    |     Cu   Cu  ClCu Cu    Cu |  
 |    Cu    Cu       Cu    Cu      |  
 |    Cu    Cl Cu  ClCu    Cl      |  
 |    |                            |  
 |    |  CCu             Cl        |  
 Cl   |                            |  
 |    |                            |  
 |    |                            |  
 |    |                            |  
 |    |                            |  
 |    |                            |  
 |    .----------------------------.  
 |   /                            /   
 |  /                            /    
 | /                            /     
 |/                            /      
 *----------------------------*       

Positions:
   0 Cu     3.471912    0.000858    9.885104    ( 0.0000,  0.0000,  0.0000)
   1 Cu     1.488375    1.801474   10.467497    ( 0.0000,  0.0000,  0.0000)
   2 Cu     7.395804    1.867625   10.394940    ( 0.0000,  0.0000,  0.0000)
   3 Cu     9.237692   -0.007926    9.932777    ( 0.0000,  0.0000,  0.0000)
   4 Cu    11.425110   -0.000234   11.275527    ( 0.0000,  0.0000,  0.0000)
   5 Cu     9.710799    1.884152   11.754321    ( 0.0000,  0.0000,  0.0000)
   6 Cu     3.835481    1.829729   11.787588    ( 0.0000,  0.0000,  0.0000)
   7 Cu     5.618603    0.005907   11.274914    ( 0.0000,  0.0000,  0.0000)
   8 Cu     7.996447    0.000751   12.278359    ( 0.0000,  0.0000,  0.0000)
   9 Cu     6.226916    1.850867   12.920461    ( 0.0000,  0.0000,  0.0000)
  10 Cu     0.385002    1.847507   12.907462    ( 0.0000,  0.0000,  0.0000)
  11 Cu     2.134590    0.002868   12.301054    ( 0.0000,  0.0000,  0.0000)
  12 Cu     4.432452   -0.000875   13.520927    ( 0.0000,  0.0000,  0.0000)
  13 Cu     2.657952    1.859357   14.117901    ( 0.0000,  0.0000,  0.0000)
  14 Cu     8.490198    1.852940   14.108146    ( 0.0000,  0.0000,  0.0000)
  15 Cu    10.271361    0.004756   13.501926    ( 0.0000,  0.0000,  0.0000)
  16 Cu     0.892626   -0.003207   14.677347    ( 0.0000,  0.0000,  0.0000)
  17 Cu    10.820275    1.850243   15.249162    ( 0.0000,  0.0000,  0.0000)
  18 Cu     4.973362    1.859406   15.270587    ( 0.0000,  0.0000,  0.0000)
  19 Cu     6.745161   -0.001110   14.674360    ( 0.0000,  0.0000,  0.0000)
  20 Cu     9.057468    0.001045   15.843296    ( 0.0000,  0.0000,  0.0000)
  21 Cu     7.280651    1.845855   16.455819    ( 0.0000,  0.0000,  0.0000)
  22 Cu     1.426301    1.853463   16.438403    ( 0.0000,  0.0000,  0.0000)
  23 Cu     3.203630   -0.002766   15.845355    ( 0.0000,  0.0000,  0.0000)
  24 Cu     5.526060    0.004441   17.009226    ( 0.0000,  0.0000,  0.0000)
  25 Cu     3.739542    1.847155   17.612583    ( 0.0000,  0.0000,  0.0000)
  26 Cu     9.611862    1.852238   17.601112    ( 0.0000,  0.0000,  0.0000)
  27 Cu    11.375669   -0.005126   17.007077    ( 0.0000,  0.0000,  0.0000)
  28 Cu     1.978813    0.008200   18.193716    ( 0.0000,  0.0000,  0.0000)
  29 Cu     0.210411    1.850709   18.785097    ( 0.0000,  0.0000,  0.0000)
  30 Cu     6.058333    1.848433   18.787881    ( 0.0000,  0.0000,  0.0000)
  31 Cu     7.847214    0.001567   18.214118    ( 0.0000,  0.0000,  0.0000)
  32 Cu    10.172284    0.003804   19.351271    ( 0.0000,  0.0000,  0.0000)
  33 Cu     8.392522    1.857688   19.942235    ( 0.0000,  0.0000,  0.0000)
  34 Cu     2.536185    1.848954   19.959677    ( 0.0000,  0.0000,  0.0000)
  35 Cu     4.303715    0.007586   19.337827    ( 0.0000,  0.0000,  0.0000)
  36 Cu     6.574285   -0.003251   20.554427    ( 0.0000,  0.0000,  0.0000)
  37 Cu     4.841058    1.851502   21.189610    ( 0.0000,  0.0000,  0.0000)
  38 Cu    10.683613    1.851051   21.193859    ( 0.0000,  0.0000,  0.0000)
  39 Cu     0.731496    0.000788   20.547954    ( 0.0000,  0.0000,  0.0000)
  40 Cu     3.127289   -0.023068   21.667118    ( 0.0000,  0.0000,  0.0000)
  41 Cu     1.358516    1.855274   22.173470    ( 0.0000,  0.0000,  0.0000)
  42 Cu     7.127985    1.849517   22.216137    ( 0.0000,  0.0000,  0.0000)
  43 Cu     8.953603    0.035847   21.689468    ( 0.0000,  0.0000,  0.0000)
  44 Cu    11.269219    0.017700   23.067887    ( 0.0000,  0.0000,  0.0000)
  45 Cu     9.258645    1.847489   23.531234    ( 0.0000,  0.0000,  0.0000)
  46 Cu     3.566316    1.844128   23.436638    ( 0.0000,  0.0000,  0.0000)
  47 Cu     5.470200   -0.053971   22.989350    ( 0.0000,  0.0000,  0.0000)
  48 Cu     3.393989    3.706922   10.022464    ( 0.0000,  0.0000,  0.0000)
  49 Cu     1.489461    5.604867   10.469777    ( 0.0000,  0.0000,  0.0000)
  50 Cu     7.394497    5.533474   10.389032    ( 0.0000,  0.0000,  0.0000)
  51 Cu     9.405085    3.703804    9.928574    ( 0.0000,  0.0000,  0.0000)
  52 Cu    11.536028    3.702156   11.242291    ( 0.0000,  0.0000,  0.0000)
  53 Cu     9.710208    5.515257   11.769738    ( 0.0000,  0.0000,  0.0000)
  54 Cu     3.832272    5.575068   11.791835    ( 0.0000,  0.0000,  0.0000)
  55 Cu     5.600160    3.696237   11.287590    ( 0.0000,  0.0000,  0.0000)
  56 Cu     7.979568    3.700404   12.264054    ( 0.0000,  0.0000,  0.0000)
  57 Cu     6.228188    5.550809   12.910307    ( 0.0000,  0.0000,  0.0000)
  58 Cu     0.385405    5.554655   12.904055    ( 0.0000,  0.0000,  0.0000)
  59 Cu     2.119073    3.700038   12.268259    ( 0.0000,  0.0000,  0.0000)
  60 Cu     4.422769    3.702476   13.499404    ( 0.0000,  0.0000,  0.0000)
  61 Cu     2.655436    5.543793   14.121077    ( 0.0000,  0.0000,  0.0000)
  62 Cu     8.490319    5.547722   14.107854    ( 0.0000,  0.0000,  0.0000)
  63 Cu    10.270274    3.693850   13.517331    ( 0.0000,  0.0000,  0.0000)
  64 Cu     0.901231    3.702934   14.670292    ( 0.0000,  0.0000,  0.0000)
  65 Cu    10.815791    5.549903   15.244845    ( 0.0000,  0.0000,  0.0000)
  66 Cu     4.980587    5.543085   15.265295    ( 0.0000,  0.0000,  0.0000)
  67 Cu     6.748574    3.700787   14.673012    ( 0.0000,  0.0000,  0.0000)
  68 Cu     9.050604    3.699281   15.857999    ( 0.0000,  0.0000,  0.0000)
  69 Cu     7.287425    5.556508   16.451961    ( 0.0000,  0.0000,  0.0000)
  70 Cu     1.433822    5.546893   16.449508    ( 0.0000,  0.0000,  0.0000)
  71 Cu     3.219917    3.704256   15.846947    ( 0.0000,  0.0000,  0.0000)
  72 Cu     5.533616    3.698127   17.020586    ( 0.0000,  0.0000,  0.0000)
  73 Cu     3.755928    5.554262   17.613906    ( 0.0000,  0.0000,  0.0000)
  74 Cu     9.605349    5.550376   17.615879    ( 0.0000,  0.0000,  0.0000)
  75 Cu    11.382335    3.705699   17.002757    ( 0.0000,  0.0000,  0.0000)
  76 Cu     1.985916    3.692241   18.188494    ( 0.0000,  0.0000,  0.0000)
  77 Cu     0.214043    5.552554   18.784165    ( 0.0000,  0.0000,  0.0000)
  78 Cu     6.066535    5.554835   18.781389    ( 0.0000,  0.0000,  0.0000)
  79 Cu     7.842795    3.701269   18.210030    ( 0.0000,  0.0000,  0.0000)
  80 Cu    10.172599    3.698443   19.351037    ( 0.0000,  0.0000,  0.0000)
  81 Cu     8.391573    5.546705   19.956979    ( 0.0000,  0.0000,  0.0000)
  82 Cu     2.526607    5.552404   19.938414    ( 0.0000,  0.0000,  0.0000)
  83 Cu     4.301071    3.692223   19.340951    ( 0.0000,  0.0000,  0.0000)
  84 Cu     6.574576    3.704107   20.550737    ( 0.0000,  0.0000,  0.0000)
  85 Cu     4.824551    5.548547   21.157692    ( 0.0000,  0.0000,  0.0000)
  86 Cu    10.667110    5.550699   21.179377    ( 0.0000,  0.0000,  0.0000)
  87 Cu     0.732892    3.700495   20.537737    ( 0.0000,  0.0000,  0.0000)
  88 Cu     3.124083    3.721192   21.671492    ( 0.0000,  0.0000,  0.0000)
  89 Cu     1.340771    5.545542   22.185659    ( 0.0000,  0.0000,  0.0000)
  90 Cu     7.237693    5.551475   22.185714    ( 0.0000,  0.0000,  0.0000)
  91 Cu     8.953098    3.667704   21.705052    ( 0.0000,  0.0000,  0.0000)
  92 Cu    11.267742    3.684090   23.062113    ( 0.0000,  0.0000,  0.0000)
  93 Cu     9.426789    5.559596   23.526869    ( 0.0000,  0.0000,  0.0000)
  94 Cu     3.487797    5.550968   23.574695    ( 0.0000,  0.0000,  0.0000)
  95 Cu     5.471235    3.750494   22.991610    ( 0.0000,  0.0000,  0.0000)
  96 Cl     9.622803    3.659236   24.964604    ( 0.0000,  0.0000,  0.0000)
  97 Cl     6.787317    5.542036   24.395510    ( 0.0000,  0.0000,  0.0000)
  98 Cl     4.080855    3.624737   24.924461    ( 0.0000,  0.0000,  0.0000)
  99 Cl     4.094470    0.069023   24.930371    ( 0.0000,  0.0000,  0.0000)
 100 Cl     9.598786    0.042806   24.974557    ( 0.0000,  0.0000,  0.0000)
 101 Cl    12.602913    5.562188   24.419520    ( 0.0000,  0.0000,  0.0000)
 102 Cl    12.599825    1.841553   24.379633    ( 0.0000,  0.0000,  0.0000)
 103 Cl     6.063774    3.709877    9.079666    ( 0.0000,  0.0000,  0.0000)
 104 Cl     6.061528   -0.010749    9.039891    ( 0.0000,  0.0000,  0.0000)
 105 Cl     2.878349    1.926908    8.533747    ( 0.0000,  0.0000,  0.0000)
 106 Cl     2.864869    5.482281    8.528332    ( 0.0000,  0.0000,  0.0000)
 107 Cl     0.172615    0.009833    9.062999    ( 0.0000,  0.0000,  0.0000)
 108 Cl    -2.665055    1.892313    8.493701    ( 0.0000,  0.0000,  0.0000)
 109 Cl    -2.640832    5.508539    8.484046    ( 0.0000,  0.0000,  0.0000)

Unit cell:
           periodic     x           y           z      points  spacing
  1. axis:    yes   11.703590    0.000000    0.000000    70     0.1672
  2. axis:    yes    0.000000    7.402000    0.000000    42     0.1762
  3. axis:    no     0.000000    0.000000   33.459128   192     0.1743

  Lengths:  11.703590   7.402000  33.459128
  Angles:   90.000000  90.000000  90.000000

Effective grid spacing dv^(1/3) = 0.1725

     iter     time        total  log10-change:
                         energy  eigst   dens
iter:   1 00:27:03 -7787.634172  -2.66
iter:   2 00:31:23 -7787.426454  -3.62  -2.67
iter:   3 00:35:44 -7787.387492c -4.20  -2.90
iter:   4 00:40:04 -7787.431406c -4.05  -3.00
iter:   5 00:44:27 -7787.362236c -4.39  -2.94
iter:   6 00:48:49 -7787.355051c -4.79  -3.31
iter:   7 00:53:11 -7787.353828c -5.13  -3.52
iter:   8 00:57:33 -7787.353570c -5.35  -3.65
iter:   9 01:01:56 -7787.352962c -5.85  -3.82
iter:  10 01:06:17 -7787.352680c -6.07  -4.02c
iter:  11 01:10:39 -7787.352566c -6.18  -4.12c
iter:  12 01:15:01 -7787.352639c -6.63  -4.20c
iter:  13 01:19:22 -7787.352617c -6.92  -4.20c
iter:  14 01:23:43 -7787.352510c -7.02  -4.30c
iter:  15 01:28:05 -7787.352488c -6.95  -4.42c
iter:  16 01:32:26 -7787.352455c -7.38  -4.51c
iter:  17 01:36:49 -7787.352472c -7.65c -4.60c

Converged after 17 iterations.

Dipole moment: (-14.367312, -8.990520, 0.002105) |e|*Ang

Energy contributions relative to reference atoms: (reference = -4497828.668287)

Kinetic:       +819.082484
Potential:     -884.650573
External:        +0.000000
XC:            -7719.955785
Entropy (-ST):   -0.951136
Local:           -1.353031
--------------------------
Free energy:   -7787.828040
Extrapolated:  -7787.352472

Showing only first 2 kpts
 Kpt  Band  Eigenvalues  Occupancy
  0   575      0.30347    0.84216
  0   576      0.34856    0.63330
  0   577      0.39327    0.45717
  0   578      0.48412    0.21342

  1   575     -0.05827    1.92879
  1   576     -0.00162    1.87785
  1   577      0.10721    1.67625
  1   578      0.19668    1.35818


Fermi level: 0.27164

No gap

Forces in eV/Ang:
  0 Cu    0.01129   -0.00918    0.01523
  1 Cu    0.00939    0.03378    0.08322
  2 Cu   -0.08797   -0.00097    0.04516
  3 Cu    0.10790    0.00634   -0.00509
  4 Cu    0.00322   -0.00083    0.06486
  5 Cu   -0.02188   -0.02728   -0.03302
  6 Cu    0.00735    0.01862   -0.04699
  7 Cu   -0.00433   -0.00414   -0.01340
  8 Cu   -0.01346   -0.00232   -0.06228
  9 Cu   -0.00496   -0.00922   -0.01849
 10 Cu   -0.04475    0.00157   -0.00989
 11 Cu   -0.01721   -0.00612    0.03614
 12 Cu   -0.02147    0.00805   -0.03484
 13 Cu   -0.04151   -0.01756   -0.01159
 14 Cu    0.04278   -0.00492   -0.04841
 15 Cu   -0.01447   -0.01722    0.01294
 16 Cu    0.01279    0.00681   -0.01014
 17 Cu    0.03747    0.00890   -0.00549
 18 Cu    0.01701   -0.03089   -0.01050
 19 Cu    0.01696    0.00243   -0.00030
 20 Cu   -0.00440   -0.00975    0.01043
 21 Cu    0.04113    0.01126   -0.04928
 22 Cu    0.01835   -0.01405    0.01662
 23 Cu    0.03463    0.00438   -0.00677
 24 Cu   -0.00060   -0.01958    0.01464
 25 Cu    0.02172    0.00735   -0.01419
 26 Cu   -0.01142   -0.01029    0.02367
 27 Cu   -0.01614    0.01123   -0.00254
 28 Cu    0.00765   -0.02961    0.00649
 29 Cu    0.01460   -0.00354   -0.01390
 30 Cu    0.01120    0.00267   -0.02949
 31 Cu   -0.04811    0.00620   -0.01654
 32 Cu   -0.03932   -0.00605    0.03679
 33 Cu    0.00627   -0.02233    0.01863
 34 Cu    0.01765    0.00631   -0.01803
 35 Cu    0.03052   -0.01448    0.02060
 36 Cu    0.05195   -0.00169   -0.00798
 37 Cu   -0.02011   -0.00525   -0.02138
 38 Cu    0.01105    0.00464   -0.03737
 39 Cu    0.00403   -0.01178    0.00523
 40 Cu   -0.02435    0.01946    0.04877
 41 Cu    0.03397   -0.00103   -0.03517
 42 Cu    0.05785    0.00197   -0.05469
 43 Cu    0.02104   -0.03559    0.06664
 44 Cu    0.08174    0.00359   -0.04553
 45 Cu    0.11084   -0.00821   -0.06563
 46 Cu    0.06854   -0.00136    0.10370
 47 Cu   -0.00734    0.04272   -0.08214
 48 Cu   -0.06944    0.00226   -0.10822
 49 Cu    0.00717   -0.03872    0.07797
 50 Cu   -0.08549   -0.00314    0.04910
 51 Cu   -0.11292    0.00826    0.05928
 52 Cu   -0.06101   -0.00236    0.05622
 53 Cu   -0.02372    0.03498   -0.06757
 54 Cu    0.02350   -0.02058   -0.04891
 55 Cu   -0.02831    0.00116    0.01674
 56 Cu   -0.01057   -0.00454    0.03978
 57 Cu   -0.00364    0.01195   -0.00163
 58 Cu   -0.05207   -0.00109    0.01205
 59 Cu    0.01955    0.00496    0.02558
 60 Cu   -0.01852   -0.00617    0.02110
 61 Cu   -0.02929    0.01479   -0.02049
 62 Cu    0.04032    0.00608   -0.03920
 63 Cu   -0.00560    0.02212   -0.02144
 64 Cu   -0.01150   -0.00239    0.03199
 65 Cu    0.04825   -0.00587    0.01663
 66 Cu   -0.00831    0.03005   -0.00725
 67 Cu   -0.01357    0.00348    0.01500
 68 Cu    0.01310    0.01031   -0.02386
 69 Cu    0.01597   -0.01100    0.00170
 70 Cu   -0.00114    0.02011   -0.01457
 71 Cu   -0.02215   -0.00727    0.01234
 72 Cu   -0.02003    0.01365   -0.01710
 73 Cu   -0.03531   -0.00432    0.00573
 74 Cu    0.00534    0.00977   -0.01112
 75 Cu   -0.04098   -0.01145    0.04976
 76 Cu   -0.01728    0.03049    0.00966
 77 Cu   -0.01671   -0.00240    0.00000
 78 Cu   -0.01198   -0.00716    0.01096
 79 Cu   -0.03776   -0.00934    0.00480
 80 Cu   -0.04235    0.00504    0.04577
 81 Cu    0.01164    0.01729   -0.00753
 82 Cu    0.02167   -0.00828    0.03620
 83 Cu    0.04305    0.01721    0.01188
 84 Cu    0.04484    0.00097    0.01458
 85 Cu    0.01877    0.00633   -0.03547
 86 Cu    0.01326    0.00240    0.06524
 87 Cu    0.00527    0.00890    0.02284
 88 Cu   -0.00817   -0.01752    0.04701
 89 Cu    0.00707    0.00390   -0.00052
 90 Cu    0.00244    0.00130   -0.09053
 91 Cu    0.01910    0.02769    0.03141
 92 Cu    0.08431    0.00069   -0.04183
 93 Cu   -0.10769   -0.00649    0.00011
 94 Cu   -0.01342    0.00839   -0.01976
 95 Cu   -0.01015   -0.03757   -0.08736
 96 Cl    0.04954    0.00500   -0.07261
 97 Cl    0.05383   -0.01123    0.01083
 98 Cl   -0.05005    0.06891   -0.02265
 99 Cl   -0.05206   -0.06020   -0.02320
100 Cl    0.06412    0.00641   -0.05535
101 Cl    0.11552   -0.00517    0.03067
102 Cl   -0.00202    0.00107    0.07799
103 Cl   -0.00328   -0.00121   -0.06939
104 Cl   -0.12062    0.00526   -0.02525
105 Cl    0.05167   -0.07019    0.02675
106 Cl    0.05350    0.06152    0.02746
107 Cl   -0.05968    0.01105    0.00439
108 Cl   -0.04403   -0.00458    0.07501
109 Cl   -0.05891   -0.00651    0.05806

System changes: positions 

Initializing position-dependent things.

Density initialized from wave functions
      .----------------------------.  
     /|                            |  
    / |                            |  
   /  |                            |  
  /   |                            |  
 *    |                            |  
 |    |                            |  
 |    |                            |  
 |    |                            |  
 |    |                            |  
 |    |                            |  
 |    |                            |  
 |    |Cl             Cl           |  
 |    |      CCl    Cu     Clu     |  
 |    |       Cu                   |  
 |  Cl| Cu Cl    Cu    CuCl    Cu  |  
 |    | Cu Cu    Cu   Cu Cu    Cu  |  
 |    |    Cu             Cu       |  
 |   CCu   Cu       Cu    Cu Cu    |  
 |   Cu       Cu    Cu Cu    Cu    |  
 |    |  Cu   Cu       Cu    Cu   Cu  
 |    | Cu    Cu       Cu    Cu    |  
 | Cu | Cu  CuCu Cu    Cu CuCu     |  
 |    | Cu  Cu   Cu    Cu Cu    Cu |  
 |    Cu   Cu    Cu Cu    Cu    Cu |  
 |    Cu   Cu  Cu   Cu    Cu       |  
 |    Cu       Cu   Cu       Cu    |  
 |    |  Cu   Cu       Cu    Cu   Cu  
 |    |  Cu   Cu       Cu    Cu    |  
 | Cu | Cu  Cu    Cu      Cu Cu    |  
 |    |     Cu   Cu  ClCu Cu    Cu |  
 |    Cu    Cu       Cu    Cu      |  
 |    Cu    Cl Cu  ClCu    Cl      |  
 |    |                            |  
 |    |  CCu             Cl        |  
 Cl   |                            |  
 |    |                            |  
 |    |                            |  
 |    |                            |  
 |    |                            |  
 |    |                            |  
 |    .----------------------------.  
 |   /                            /   
 |  /                            /    
 | /                            /     
 |/                            /      
 *----------------------------*       

Positions:
   0 Cu     3.477428    0.001147    9.889730    ( 0.0000,  0.0000,  0.0000)
   1 Cu     1.482698    1.804117   10.485562    ( 0.0000,  0.0000,  0.0000)
   2 Cu     7.384770    1.870100   10.401919    ( 0.0000,  0.0000,  0.0000)
   3 Cu     9.253590   -0.005993    9.934436    ( 0.0000,  0.0000,  0.0000)
   4 Cu    11.427265   -0.000684   11.274448    ( 0.0000,  0.0000,  0.0000)
   5 Cu     9.709098    1.880320   11.748586    ( 0.0000,  0.0000,  0.0000)
   6 Cu     3.836458    1.828862   11.780803    ( 0.0000,  0.0000,  0.0000)
   7 Cu     5.618715    0.005859   11.271945    ( 0.0000,  0.0000,  0.0000)
   8 Cu     7.993425    0.000425   12.270379    ( 0.0000,  0.0000,  0.0000)
   9 Cu     6.226690    1.846167   12.915044    ( 0.0000,  0.0000,  0.0000)
  10 Cu     0.381172    1.846241   12.901726    ( 0.0000,  0.0000,  0.0000)
  11 Cu     2.128755    0.002446   12.306198    ( 0.0000,  0.0000,  0.0000)
  12 Cu     4.429646    0.000518   13.517990    ( 0.0000,  0.0000,  0.0000)
  13 Cu     2.650396    1.856256   14.116756    ( 0.0000,  0.0000,  0.0000)
  14 Cu     8.498483    1.851621   14.102415    ( 0.0000,  0.0000,  0.0000)
  15 Cu    10.268706    0.002611   13.506574    ( 0.0000,  0.0000,  0.0000)
  16 Cu     0.895747   -0.002644   14.675434    ( 0.0000,  0.0000,  0.0000)
  17 Cu    10.825994    1.851911   15.246742    ( 0.0000,  0.0000,  0.0000)
  18 Cu     4.975846    1.854806   15.269136    ( 0.0000,  0.0000,  0.0000)
  19 Cu     6.746249   -0.000144   14.676084    ( 0.0000,  0.0000,  0.0000)
  20 Cu     9.054414   -0.000223   15.845969    ( 0.0000,  0.0000,  0.0000)
  21 Cu     7.288743    1.845908   16.450536    ( 0.0000,  0.0000,  0.0000)
  22 Cu     1.429210    1.851098   16.438148    ( 0.0000,  0.0000,  0.0000)
  23 Cu     3.209410   -0.001839   15.845169    ( 0.0000,  0.0000,  0.0000)
  24 Cu     5.525166    0.001446   17.011966    ( 0.0000,  0.0000,  0.0000)
  25 Cu     3.742385    1.848434   17.609539    ( 0.0000,  0.0000,  0.0000)
  26 Cu     9.609356    1.850610   17.603053    ( 0.0000,  0.0000,  0.0000)
  27 Cu    11.373378   -0.004793   17.005189    ( 0.0000,  0.0000,  0.0000)
  28 Cu     1.979024    0.004237   18.194447    ( 0.0000,  0.0000,  0.0000)
  29 Cu     0.214356    1.850096   18.780503    ( 0.0000,  0.0000,  0.0000)
  30 Cu     6.059395    1.848279   18.783053    ( 0.0000,  0.0000,  0.0000)
  31 Cu     7.839781    0.003113   18.211826    ( 0.0000,  0.0000,  0.0000)
  32 Cu    10.165073    0.002625   19.357272    ( 0.0000,  0.0000,  0.0000)
  33 Cu     8.392035    1.855026   19.943295    ( 0.0000,  0.0000,  0.0000)
  34 Cu     2.544475    1.849419   19.947939    ( 0.0000,  0.0000,  0.0000)
  35 Cu     4.309123    0.005296   19.340833    ( 0.0000,  0.0000,  0.0000)
  36 Cu     6.579261   -0.004320   20.557743    ( 0.0000,  0.0000,  0.0000)
  37 Cu     4.836082    1.851008   21.184902    ( 0.0000,  0.0000,  0.0000)
  38 Cu    10.687037    1.852519   21.191846    ( 0.0000,  0.0000,  0.0000)
  39 Cu     0.729766   -0.004384   20.550397    ( 0.0000,  0.0000,  0.0000)
  40 Cu     3.124728   -0.023442   21.673907    ( 0.0000,  0.0000,  0.0000)
  41 Cu     1.351443    1.855579   22.182240    ( 0.0000,  0.0000,  0.0000)
  42 Cu     7.135729    1.849771   22.208351    ( 0.0000,  0.0000,  0.0000)
  43 Cu     8.954651    0.030642   21.699553    ( 0.0000,  0.0000,  0.0000)
  44 Cu    11.280030    0.021249   23.061098    ( 0.0000,  0.0000,  0.0000)
  45 Cu     9.270133    1.845947   23.523887    ( 0.0000,  0.0000,  0.0000)
  46 Cu     3.573335    1.845310   23.450380    ( 0.0000,  0.0000,  0.0000)
  47 Cu     5.478503   -0.051311   22.969797    ( 0.0000,  0.0000,  0.0000)
  48 Cu     3.386570    3.705775   10.008875    ( 0.0000,  0.0000,  0.0000)
  49 Cu     1.481128    5.602021   10.490138    ( 0.0000,  0.0000,  0.0000)
  50 Cu     7.383501    5.530030   10.396606    ( 0.0000,  0.0000,  0.0000)
  51 Cu     9.393778    3.705332    9.935778    ( 0.0000,  0.0000,  0.0000)
  52 Cu    11.528231    3.701863   11.250265    ( 0.0000,  0.0000,  0.0000)
  53 Cu     9.709178    5.520643   11.759839    ( 0.0000,  0.0000,  0.0000)
  54 Cu     3.834941    5.575440   11.785394    ( 0.0000,  0.0000,  0.0000)
  55 Cu     5.607164    3.695895   11.280512    ( 0.0000,  0.0000,  0.0000)
  56 Cu     7.976068    3.698951   12.266548    ( 0.0000,  0.0000,  0.0000)
  57 Cu     6.229451    5.555960   12.908124    ( 0.0000,  0.0000,  0.0000)
  58 Cu     0.380200    5.555959   12.900917    ( 0.0000,  0.0000,  0.0000)
  59 Cu     2.123642    3.700497   12.273224    ( 0.0000,  0.0000,  0.0000)
  60 Cu     4.415003    3.702013   13.510750    ( 0.0000,  0.0000,  0.0000)
  61 Cu     2.650101    5.546213   14.118392    ( 0.0000,  0.0000,  0.0000)
  62 Cu     8.497882    5.548855   14.102126    ( 0.0000,  0.0000,  0.0000)
  63 Cu    10.270881    3.696468   13.516265    ( 0.0000,  0.0000,  0.0000)
  64 Cu     0.900032    3.703096   14.675624    ( 0.0000,  0.0000,  0.0000)
  65 Cu    10.823083    5.548273   15.247000    ( 0.0000,  0.0000,  0.0000)
  66 Cu     4.980538    5.547008   15.264650    ( 0.0000,  0.0000,  0.0000)
  67 Cu     6.744866    3.701406   14.678260    ( 0.0000,  0.0000,  0.0000)
  68 Cu     9.053119    3.700903   15.855776    ( 0.0000,  0.0000,  0.0000)
  69 Cu     7.289685    5.556230   16.453499    ( 0.0000,  0.0000,  0.0000)
  70 Cu     1.434657    5.549952   16.446685    ( 0.0000,  0.0000,  0.0000)
  71 Cu     3.217101    3.702987   15.849886    ( 0.0000,  0.0000,  0.0000)
  72 Cu     5.530566    3.700452   17.020581    ( 0.0000,  0.0000,  0.0000)
  73 Cu     3.749985    5.553335   17.614023    ( 0.0000,  0.0000,  0.0000)
  74 Cu     9.608206    5.551641   17.613082    ( 0.0000,  0.0000,  0.0000)
  75 Cu    11.374243    3.705614   17.007823    ( 0.0000,  0.0000,  0.0000)
  76 Cu     1.983612    3.696883   18.190041    ( 0.0000,  0.0000,  0.0000)
  77 Cu     0.213074    5.551561   18.782887    ( 0.0000,  0.0000,  0.0000)
  78 Cu     6.063566    5.554252   18.783328    ( 0.0000,  0.0000,  0.0000)
  79 Cu     7.836870    3.699670   18.212236    ( 0.0000,  0.0000,  0.0000)
  80 Cu    10.164629    3.699850   19.357017    ( 0.0000,  0.0000,  0.0000)
  81 Cu     8.394679    5.548874   19.951840    ( 0.0000,  0.0000,  0.0000)
  82 Cu     2.529860    5.550998   19.940667    ( 0.0000,  0.0000,  0.0000)
  83 Cu     4.308736    3.695193   19.342417    ( 0.0000,  0.0000,  0.0000)
  84 Cu     6.578174    3.705110   20.556774    ( 0.0000,  0.0000,  0.0000)
  85 Cu     4.830284    5.548983   21.152712    ( 0.0000,  0.0000,  0.0000)
  86 Cu    10.670218    5.551041   21.187881    ( 0.0000,  0.0000,  0.0000)
  87 Cu     0.732593    3.705189   20.543424    ( 0.0000,  0.0000,  0.0000)
  88 Cu     3.123245    3.722073   21.678636    ( 0.0000,  0.0000,  0.0000)
  89 Cu     1.340301    5.545618   22.190308    ( 0.0000,  0.0000,  0.0000)
  90 Cu     7.235015    5.551960   22.189701    ( 0.0000,  0.0000,  0.0000)
  91 Cu     8.954823    3.671314   21.710885    ( 0.0000,  0.0000,  0.0000)
  92 Cu    11.278558    3.681540   23.055929    ( 0.0000,  0.0000,  0.0000)
  93 Cu     9.410675    5.557616   23.524990    ( 0.0000,  0.0000,  0.0000)
  94 Cu     3.481842    5.550641   23.569862    ( 0.0000,  0.0000,  0.0000)
  95 Cu     5.476941    3.748079   22.974130    ( 0.0000,  0.0000,  0.0000)
  96 Cl     9.625866    3.660156   24.956923    ( 0.0000,  0.0000,  0.0000)
  97 Cl     6.798471    5.540694   24.385772    ( 0.0000,  0.0000,  0.0000)
  98 Cl     4.069967    3.628564   24.928239    ( 0.0000,  0.0000,  0.0000)
  99 Cl     4.082218    0.066199   24.937497    ( 0.0000,  0.0000,  0.0000)
 100 Cl     9.603447    0.044406   24.969099    ( 0.0000,  0.0000,  0.0000)
 101 Cl    12.616021    5.561590   24.417594    ( 0.0000,  0.0000,  0.0000)
 102 Cl    12.600049    1.841674   24.380666    ( 0.0000,  0.0000,  0.0000)
 103 Cl     6.063293    3.709752    9.076032    ( 0.0000,  0.0000,  0.0000)
 104 Cl     6.048107   -0.010151    9.039318    ( 0.0000,  0.0000,  0.0000)
 105 Cl     2.889475    1.922646    8.528931    ( 0.0000,  0.0000,  0.0000)
 106 Cl     2.877459    5.485536    8.519939    ( 0.0000,  0.0000,  0.0000)
 107 Cl     0.161472    0.011191    9.069092    ( 0.0000,  0.0000,  0.0000)
 108 Cl    -2.667513    1.891095    8.500472    ( 0.0000,  0.0000,  0.0000)
 109 Cl    -2.644913    5.507311    8.488637    ( 0.0000,  0.0000,  0.0000)

Unit cell:
           periodic     x           y           z      points  spacing
  1. axis:    yes   11.703590    0.000000    0.000000    70     0.1672
  2. axis:    yes    0.000000    7.402000    0.000000    42     0.1762
  3. axis:    no     0.000000    0.000000   33.459128   192     0.1743

  Lengths:  11.703590   7.402000  33.459128
  Angles:   90.000000  90.000000  90.000000

Effective grid spacing dv^(1/3) = 0.1725

     iter     time        total  log10-change:
                         energy  eigst   dens
iter:   1 01:43:53 -7787.596315  -2.79
iter:   2 01:48:14 -7787.467041  -3.70  -2.72
iter:   3 01:52:34 -7787.480398c -4.08  -2.91
iter:   4 01:56:56 -7787.399793c -4.35  -2.89
iter:   5 02:01:21 -7787.385877c -4.35  -3.12
iter:   6 02:05:45 -7787.381559c -4.87  -3.39
iter:   7 02:10:12 -7787.380684c -5.28  -3.59
iter:   8 02:14:40 -7787.380449c -5.52  -3.72
iter:   9 02:19:08 -7787.380099c -5.83  -3.89
iter:  10 02:23:35 -7787.379940c -6.32  -4.03c
iter:  11 02:28:03 -7787.379831c -6.56  -4.10c
iter:  12 02:32:31 -7787.379772c -6.58  -4.22c
iter:  13 02:36:58 -7787.379725c -6.92  -4.29c
iter:  14 02:41:24 -7787.379690c -7.00  -4.39c
iter:  15 02:45:52 -7787.379712c -7.54c -4.58c

Converged after 15 iterations.

Dipole moment: (-12.894153, -8.625943, 0.010826) |e|*Ang

Energy contributions relative to reference atoms: (reference = -4497828.668287)

Kinetic:       +818.402914
Potential:     -884.082191
External:        +0.000000
XC:            -7719.878093
Entropy (-ST):   -0.952301
Local:           -1.346191
--------------------------
Free energy:   -7787.855863
Extrapolated:  -7787.379712

Showing only first 2 kpts
 Kpt  Band  Eigenvalues  Occupancy
  0   575      0.29904    0.83768
  0   576      0.34248    0.63646
  0   577      0.38741    0.45899
  0   578      0.47852    0.21390

  1   575     -0.06645    1.93071
  1   576     -0.00711    1.87800
  1   577      0.09883    1.68437
  1   578      0.19355    1.34847


Fermi level: 0.26629

No gap

Forces in eV/Ang:
  0 Cu   -0.03510   -0.01944   -0.01738
  1 Cu    0.06384    0.03647   -0.00872
  2 Cu   -0.05493   -0.02563    0.01479
  3 Cu    0.04463   -0.00599   -0.02528
  4 Cu   -0.01485    0.00284    0.13638
  5 Cu   -0.02449   -0.01506   -0.00671
  6 Cu    0.00459    0.04211   -0.01849
  7 Cu   -0.00566   -0.00725    0.00572
  8 Cu    0.00754   -0.00138   -0.04216
  9 Cu   -0.00820    0.02603    0.01803
 10 Cu   -0.05067    0.01289    0.04159
 11 Cu    0.02189   -0.00707    0.02151
 12 Cu   -0.01445    0.00154   -0.03694
 13 Cu   -0.00700   -0.00444   -0.00819
 14 Cu    0.00337    0.00136   -0.03711
 15 Cu    0.00141   -0.01144   -0.02017
 16 Cu   -0.00805    0.00605   -0.00188
 17 Cu    0.01739   -0.00095    0.00792
 18 Cu    0.00732   -0.01537   -0.00510
 19 Cu    0.02032   -0.00527   -0.01804
 20 Cu    0.02130   -0.00725   -0.00832
 21 Cu   -0.00105    0.01991   -0.04008
 22 Cu    0.00868   -0.00504    0.02969
 23 Cu    0.00919   -0.00189   -0.01034
 24 Cu    0.00403   -0.00937    0.00315
 25 Cu    0.01666    0.00034   -0.00076
 26 Cu    0.00203   -0.00448    0.02608
 27 Cu   -0.00671    0.01686    0.01028
 28 Cu    0.01425   -0.01910    0.00447
 29 Cu   -0.00862   -0.00182    0.01986
 30 Cu    0.01052    0.00548   -0.00884
 31 Cu   -0.02082   -0.00485   -0.00472
 32 Cu   -0.00576   -0.00142    0.01559
 33 Cu    0.01440   -0.01592    0.02453
 34 Cu   -0.04206    0.00727    0.07308
 35 Cu    0.00672   -0.00703    0.00694
 36 Cu    0.05344    0.00488   -0.05223
 37 Cu    0.00834   -0.00465   -0.00008
 38 Cu   -0.01278   -0.00501   -0.04888
 39 Cu    0.02353    0.02520   -0.01328
 40 Cu   -0.02099    0.03915    0.02132
 41 Cu    0.12540   -0.00421   -0.14927
 42 Cu    0.03973    0.00124   -0.02718
 43 Cu    0.03001   -0.01863    0.02626
 44 Cu    0.04621   -0.02678   -0.02018
 45 Cu    0.09650    0.00001   -0.05255
 46 Cu    0.06412   -0.01443    0.06351
 47 Cu   -0.08279    0.05244    0.02121
 48 Cu   -0.06250    0.01561   -0.07387
 49 Cu    0.08090   -0.04365   -0.03365
 50 Cu   -0.05142    0.02645    0.01715
 51 Cu   -0.10052    0.00021    0.04161
 52 Cu   -0.04391   -0.00174    0.02795
 53 Cu   -0.03387    0.01579   -0.02948
 54 Cu    0.01798   -0.04099   -0.02453
 55 Cu   -0.11414    0.00478    0.09710
 56 Cu    0.01437    0.00499    0.04996
 57 Cu   -0.01836   -0.02494    0.01936
 58 Cu   -0.05119   -0.01241    0.05869
 59 Cu   -0.00676    0.00434    0.00555
 60 Cu    0.03589   -0.00708   -0.06368
 61 Cu   -0.00535    0.00623   -0.00909
 62 Cu    0.00448    0.00208   -0.02039
 63 Cu   -0.01369    0.01594   -0.02869
 64 Cu   -0.01009   -0.00502    0.00800
 65 Cu    0.02165    0.00636    0.00535
 66 Cu   -0.01636    0.02032   -0.00619
 67 Cu    0.00860    0.00168   -0.02226
 68 Cu    0.00023    0.00460   -0.02439
 69 Cu    0.00650   -0.01692   -0.00903
 70 Cu   -0.00633    0.00976   -0.00206
 71 Cu   -0.01681   -0.00030   -0.00144
 72 Cu   -0.01013    0.00468   -0.02781
 73 Cu   -0.00796    0.00198    0.00909
 74 Cu   -0.01828    0.00725    0.00752
 75 Cu    0.00101   -0.01997    0.04287
 76 Cu   -0.00899    0.01415    0.00316
 77 Cu   -0.02078    0.00551    0.01493
 78 Cu    0.00776   -0.00656    0.00244
 79 Cu   -0.01677   -0.00060   -0.00797
 80 Cu   -0.00535   -0.00213    0.03206
 81 Cu   -0.01011    0.01135    0.03547
 82 Cu    0.01029   -0.00180    0.04690
 83 Cu    0.00859    0.00508    0.00615
 84 Cu    0.05332   -0.00559   -0.03538
 85 Cu   -0.01889    0.00744   -0.02144
 86 Cu   -0.00887    0.00142    0.04375
 87 Cu    0.01371   -0.02624   -0.01073
 88 Cu   -0.00796   -0.04036    0.01521
 89 Cu    0.01395    0.00661   -0.05068
 90 Cu    0.03146   -0.00209   -0.21732
 91 Cu    0.02044    0.01783    0.00306
 92 Cu    0.05026    0.02593   -0.01823
 93 Cu   -0.04047    0.00621    0.01824
 94 Cu    0.03589    0.01845    0.01097
 95 Cu   -0.06677   -0.04524   -0.00245
 96 Cl    0.06791   -0.00287   -0.07447
 97 Cl   -0.01720   -0.00836    0.13318
 98 Cl    0.02330    0.10203   -0.08216
 99 Cl    0.03196   -0.09370   -0.11823
100 Cl    0.07939   -0.00878   -0.06583
101 Cl    0.06204   -0.00395    0.08052
102 Cl   -0.01401    0.00216    0.14923
103 Cl    0.00585   -0.00241   -0.10333
104 Cl   -0.06934    0.00424   -0.04150
105 Cl   -0.02292   -0.09891    0.09528
106 Cl   -0.03238    0.09064    0.13295
107 Cl    0.00496    0.00801   -0.05979
108 Cl   -0.06462    0.00658    0.08489
109 Cl   -0.07622    0.00468    0.07608

System changes: positions 

Initializing position-dependent things.

Density initialized from wave functions
      .----------------------------.  
     /|                            |  
    / |                            |  
   /  |                            |  
  /   |                            |  
 *    |                            |  
 |    |                            |  
 |    |                            |  
 |    |                            |  
 |    |                            |  
 |    |                            |  
 |    |                            |  
 |    |Cl             Cl           |  
 |    |      CCl    Cu     Clu     |  
 |    |       Cu                   |  
 |  Cl| Cu Cl    Cu    CuCl    Cu  |  
 |    | Cu Cu    Cu   Cu Cu    Cu  |  
 |    |    Cu             Cu       |  
 |   CCu   Cu       Cu    Cu Cu    |  
 |   Cu       Cu    Cu Cu    Cu    |  
 |    |  Cu   Cu    Cu Cu    Cu   Cu  
 |    | Cu    Cu       Cu    Cu    |  
 | Cu | Cu  CuCu Cu    Cu CuCu     |  
 |    | Cu  Cu   Cu    Cu Cu    Cu |  
 |    Cu   Cu    Cu Cu    Cu    Cu |  
 |    Cu   Cu       Cu    Cu       |  
 |    Cu       Cu   Cu       Cu    |  
 |    |  Cu   Cu       Cu    Cu   Cu  
 |    |  Cu   Cu       Cu    Cu    |  
 | Cu | Cu  Cu Cu Cu      Cu Cu    |  
 |    |     Cu   Cu  ClCu Cu    Cu |  
 |    Cu    Cu       Cu    Cu      |  
 |    Cu    Cl Cu  ClCu    Cl      |  
 |    |                            |  
 |    |  Cl              Cl        |  
 Cl   |                            |  
 |    |                            |  
 |    |                            |  
 |    |                            |  
 |    |                            |  
 |    |                            |  
 |    .----------------------------.  
 |   /                            /   
 |  /                            /    
 | /                            /     
 |/                            /      
 *----------------------------*       

Positions:
   0 Cu     3.476864   -0.000714    9.890512    ( 0.0000,  0.0000,  0.0000)
   1 Cu     1.486165    1.809394   10.494774    ( 0.0000,  0.0000,  0.0000)
   2 Cu     7.372869    1.868817   10.407367    ( 0.0000,  0.0000,  0.0000)
   3 Cu     9.267142   -0.005534    9.932733    ( 0.0000,  0.0000,  0.0000)
   4 Cu    11.426926   -0.000640   11.288044    ( 0.0000,  0.0000,  0.0000)
   5 Cu     9.705595    1.876606   11.744676    ( 0.0000,  0.0000,  0.0000)
   6 Cu     3.837483    1.832761   11.775077    ( 0.0000,  0.0000,  0.0000)
   7 Cu     5.618188    0.005077   11.270878    ( 0.0000,  0.0000,  0.0000)
   8 Cu     7.992517    0.000099   12.261518    ( 0.0000,  0.0000,  0.0000)
   9 Cu     6.225709    1.846244   12.913886    ( 0.0000,  0.0000,  0.0000)
  10 Cu     0.373751    1.846875   12.902844    ( 0.0000,  0.0000,  0.0000)
  11 Cu     2.127766    0.001475   12.311320    ( 0.0000,  0.0000,  0.0000)
  12 Cu     4.426569    0.001460   13.512498    ( 0.0000,  0.0000,  0.0000)
  13 Cu     2.645434    1.854057   14.115262    ( 0.0000,  0.0000,  0.0000)
  14 Cu     8.503475    1.851023   14.095341    ( 0.0000,  0.0000,  0.0000)
  15 Cu    10.267365    0.000218   13.507077    ( 0.0000,  0.0000,  0.0000)
  16 Cu     0.896656   -0.001698   14.674166    ( 0.0000,  0.0000,  0.0000)
  17 Cu    10.831009    1.852747   15.246210    ( 0.0000,  0.0000,  0.0000)
  18 Cu     4.977999    1.850628   15.267792    ( 0.0000,  0.0000,  0.0000)
  19 Cu     6.748974   -0.000151   14.675172    ( 0.0000,  0.0000,  0.0000)
  20 Cu     9.054921   -0.001689   15.846600    ( 0.0000,  0.0000,  0.0000)
  21 Cu     7.293167    1.848010   16.443403    ( 0.0000,  0.0000,  0.0000)
  22 Cu     1.431744    1.849249   16.441095    ( 0.0000,  0.0000,  0.0000)
  23 Cu     3.213605   -0.001516   15.843988    ( 0.0000,  0.0000,  0.0000)
  24 Cu     5.525084   -0.001207   17.013829    ( 0.0000,  0.0000,  0.0000)
  25 Cu     3.745713    1.849185   17.607755    ( 0.0000,  0.0000,  0.0000)
  26 Cu     9.608163    1.849232   17.606856    ( 0.0000,  0.0000,  0.0000)
  27 Cu    11.371395   -0.002852   17.005201    ( 0.0000,  0.0000,  0.0000)
  28 Cu     1.980625    0.000029   18.195322    ( 0.0000,  0.0000,  0.0000)
  29 Cu     0.215668    1.849562   18.779999    ( 0.0000,  0.0000,  0.0000)
  30 Cu     6.061085    1.848763   18.779428    ( 0.0000,  0.0000,  0.0000)
  31 Cu     7.833449    0.003474   18.210050    ( 0.0000,  0.0000,  0.0000)
  32 Cu    10.160434    0.001817   19.362257    ( 0.0000,  0.0000,  0.0000)
  33 Cu     8.393261    1.851877   19.946443    ( 0.0000,  0.0000,  0.0000)
  34 Cu     2.544739    1.850436   19.948974    ( 0.0000,  0.0000,  0.0000)
  35 Cu     4.312853    0.003281   19.343239    ( 0.0000,  0.0000,  0.0000)
  36 Cu     6.587612   -0.004411   20.554162    ( 0.0000,  0.0000,  0.0000)
  37 Cu     4.834163    1.850247   21.182256    ( 0.0000,  0.0000,  0.0000)
  38 Cu    10.687623    1.852820   21.185628    ( 0.0000,  0.0000,  0.0000)
  39 Cu     0.731247   -0.004657   20.550382    ( 0.0000,  0.0000,  0.0000)
  40 Cu     3.121109   -0.019575   21.679930    ( 0.0000,  0.0000,  0.0000)
  41 Cu     1.360538    1.855311   22.171609    ( 0.0000,  0.0000,  0.0000)
  42 Cu     7.144203    1.850042   22.201159    ( 0.0000,  0.0000,  0.0000)
  43 Cu     8.958363    0.025787   21.707937    ( 0.0000,  0.0000,  0.0000)
  44 Cu    11.290897    0.020449   23.055193    ( 0.0000,  0.0000,  0.0000)
  45 Cu     9.286615    1.845085   23.514300    ( 0.0000,  0.0000,  0.0000)
  46 Cu     3.583943    1.844470   23.464691    ( 0.0000,  0.0000,  0.0000)
  47 Cu     5.474532   -0.044361   22.961053    ( 0.0000,  0.0000,  0.0000)
  48 Cu     3.375907    3.706758    9.993572    ( 0.0000,  0.0000,  0.0000)
  49 Cu     1.484884    5.595882   10.498038    ( 0.0000,  0.0000,  0.0000)
  50 Cu     7.371988    5.530856   10.402635    ( 0.0000,  0.0000,  0.0000)
  51 Cu     9.376977    3.706209    9.944146    ( 0.0000,  0.0000,  0.0000)
  52 Cu    11.519291    3.701518   11.257643    ( 0.0000,  0.0000,  0.0000)
  53 Cu     9.705074    5.525304   11.751224    ( 0.0000,  0.0000,  0.0000)
  54 Cu     3.838308    5.571380   11.779233    ( 0.0000,  0.0000,  0.0000)
  55 Cu     5.599203    3.696202   11.286657    ( 0.0000,  0.0000,  0.0000)
  56 Cu     7.975603    3.698657   12.273146    ( 0.0000,  0.0000,  0.0000)
  57 Cu     6.228247    5.556248   12.908918    ( 0.0000,  0.0000,  0.0000)
  58 Cu     0.371955    5.555397   12.905270    ( 0.0000,  0.0000,  0.0000)
  59 Cu     2.125498    3.701206   12.276582    ( 0.0000,  0.0000,  0.0000)
  60 Cu     4.414389    3.701017   13.510474    ( 0.0000,  0.0000,  0.0000)
  61 Cu     2.646555    5.548217   14.115941    ( 0.0000,  0.0000,  0.0000)
  62 Cu     8.502585    5.549708   14.096795    ( 0.0000,  0.0000,  0.0000)
  63 Cu    10.269795    3.699595   13.512682    ( 0.0000,  0.0000,  0.0000)
  64 Cu     0.898311    3.702664   14.679444    ( 0.0000,  0.0000,  0.0000)
  65 Cu    10.829422    5.548023   15.248764    ( 0.0000,  0.0000,  0.0000)
  66 Cu     4.978807    5.551321   15.263645    ( 0.0000,  0.0000,  0.0000)
  67 Cu     6.743684    3.701927   14.678882    ( 0.0000,  0.0000,  0.0000)
  68 Cu     9.054552    3.702291   15.851992    ( 0.0000,  0.0000,  0.0000)
  69 Cu     7.291628    5.554313   16.453420    ( 0.0000,  0.0000,  0.0000)
  70 Cu     1.434465    5.552682   16.444890    ( 0.0000,  0.0000,  0.0000)
  71 Cu     3.213774    3.702245   15.851383    ( 0.0000,  0.0000,  0.0000)
  72 Cu     5.527803    3.702242   17.017683    ( 0.0000,  0.0000,  0.0000)
  73 Cu     3.745827    5.553022   17.615035    ( 0.0000,  0.0000,  0.0000)
  74 Cu     9.607903    5.553105   17.612298    ( 0.0000,  0.0000,  0.0000)
  75 Cu    11.369815    3.703487   17.015123    ( 0.0000,  0.0000,  0.0000)
  76 Cu     1.981385    3.700957   18.191237    ( 0.0000,  0.0000,  0.0000)
  77 Cu     0.210367    5.551579   18.783726    ( 0.0000,  0.0000,  0.0000)
  78 Cu     6.062710    5.553243   18.784668    ( 0.0000,  0.0000,  0.0000)
  79 Cu     7.831805    3.698712   18.212642    ( 0.0000,  0.0000,  0.0000)
  80 Cu    10.159608    3.700416   19.363705    ( 0.0000,  0.0000,  0.0000)
  81 Cu     8.395366    5.551271   19.952655    ( 0.0000,  0.0000,  0.0000)
  82 Cu     2.532753    5.550022   19.946813    ( 0.0000,  0.0000,  0.0000)
  83 Cu     4.313924    3.697387   19.343879    ( 0.0000,  0.0000,  0.0000)
  84 Cu     6.585741    3.705090   20.556471    ( 0.0000,  0.0000,  0.0000)
  85 Cu     4.831529    5.550002   21.147690    ( 0.0000,  0.0000,  0.0000)
  86 Cu    10.671035    5.551380   21.197201    ( 0.0000,  0.0000,  0.0000)
  87 Cu     0.733852    3.705086   20.545492    ( 0.0000,  0.0000,  0.0000)
  88 Cu     3.121947    3.718364   21.684221    ( 0.0000,  0.0000,  0.0000)
  89 Cu     1.341490    5.546349   22.187635    ( 0.0000,  0.0000,  0.0000)
  90 Cu     7.236791    5.552015   22.169306    ( 0.0000,  0.0000,  0.0000)
  91 Cu     8.957917    3.675193   21.714470    ( 0.0000,  0.0000,  0.0000)
  92 Cu    11.289851    3.682812   23.050566    ( 0.0000,  0.0000,  0.0000)
  93 Cu     9.397434    5.557154   23.525837    ( 0.0000,  0.0000,  0.0000)
  94 Cu     3.482243    5.552379   23.568297    ( 0.0000,  0.0000,  0.0000)
  95 Cu     5.473185    3.742015   22.964083    ( 0.0000,  0.0000,  0.0000)
  96 Cl     9.634653    3.660372   24.944867    ( 0.0000,  0.0000,  0.0000)
  97 Cl     6.802929    5.539071   24.394185    ( 0.0000,  0.0000,  0.0000)
  98 Cl     4.066294    3.641332   24.921801    ( 0.0000,  0.0000,  0.0000)
  99 Cl     4.078683    0.054861   24.929177    ( 0.0000,  0.0000,  0.0000)
 100 Cl     9.614324    0.044388   24.959187    ( 0.0000,  0.0000,  0.0000)
 101 Cl    12.629824    5.560844   24.424899    ( 0.0000,  0.0000,  0.0000)
 102 Cl    12.598716    1.841966   24.396783    ( 0.0000,  0.0000,  0.0000)
 103 Cl     6.063633    3.709431    9.063238    ( 0.0000,  0.0000,  0.0000)
 104 Cl     6.033369   -0.009374    9.034676    ( 0.0000,  0.0000,  0.0000)
 105 Cl     2.893321    1.909959    8.536154    ( 0.0000,  0.0000,  0.0000)
 106 Cl     2.881139    5.496798    8.529081    ( 0.0000,  0.0000,  0.0000)
 107 Cl     0.155748    0.012785    9.066280    ( 0.0000,  0.0000,  0.0000)
 108 Cl    -2.675618    1.891099    8.513103    ( 0.0000,  0.0000,  0.0000)
 109 Cl    -2.655134    5.507111    8.499131    ( 0.0000,  0.0000,  0.0000)

Unit cell:
           periodic     x           y           z      points  spacing
  1. axis:    yes   11.703590    0.000000    0.000000    70     0.1672
  2. axis:    yes    0.000000    7.402000    0.000000    42     0.1762
  3. axis:    no     0.000000    0.000000   33.459128   192     0.1743

  Lengths:  11.703590   7.402000  33.459128
  Angles:   90.000000  90.000000  90.000000

Effective grid spacing dv^(1/3) = 0.1725

     iter     time        total  log10-change:
                         energy  eigst   dens
iter:   1 02:52:59 -7787.537961  -2.92
iter:   2 02:57:21 -7787.454141  -3.89  -2.81
iter:   3 03:01:43 -7787.437933c -4.71  -3.07
iter:   4 03:06:05 -7787.499916c -4.16  -3.11
iter:   5 03:10:27 -7787.422194c -4.44  -2.94
iter:   6 03:14:49 -7787.418195c -5.17  -3.49
iter:   7 03:19:11 -7787.417614c -5.44  -3.64
iter:   8 03:23:33 -7787.417655c -5.61  -3.74
iter:   9 03:27:54 -7787.417349c -5.96  -3.90
iter:  10 03:32:15 -7787.416971c -6.00  -4.18c
iter:  11 03:36:36 -7787.416993c -6.60  -4.30c
iter:  12 03:41:03 -7787.417021c -7.06  -4.38c
iter:  13 03:45:40 -7787.416996c -7.15  -4.39c
iter:  14 03:50:05 -7787.416983c -7.30  -4.56c
iter:  15 03:54:33 -7787.416953c -7.47c -4.75c

Converged after 15 iterations.

Dipole moment: (-11.554897, -7.666893, -0.001845) |e|*Ang

Energy contributions relative to reference atoms: (reference = -4497828.668287)

Kinetic:       +818.443685
Potential:     -884.090828
External:        +0.000000
XC:            -7719.952374
Entropy (-ST):   -0.950715
Local:           -1.342079
--------------------------
Free energy:   -7787.892311
Extrapolated:  -7787.416953

Showing only first 2 kpts
 Kpt  Band  Eigenvalues  Occupancy
  0   575      0.29991    0.82852
  0   576      0.34059    0.64024
  0   577      0.38505    0.46375
  0   578      0.47814    0.21268

  1   575     -0.07246    1.93398
  1   576     -0.00512    1.87451
  1   577      0.09491    1.69202
  1   578      0.19144    1.35326


Fermi level: 0.26527

No gap

Forces in eV/Ang:
  0 Cu   -0.02510   -0.01027    0.02291
  1 Cu    0.03427    0.01466   -0.01505
  2 Cu   -0.05085   -0.01940   -0.00016
  3 Cu    0.02223   -0.00843   -0.01977
  4 Cu    0.03392   -0.00076    0.00162
  5 Cu   -0.02433    0.00037    0.00711
  6 Cu   -0.00796    0.02559   -0.00219
  7 Cu   -0.01123   -0.00487   -0.00024
  8 Cu    0.00438   -0.00104   -0.01351
  9 Cu   -0.00189    0.01672    0.02776
 10 Cu   -0.02247    0.02567    0.05374
 11 Cu    0.02769   -0.00700   -0.00864
 12 Cu    0.00120   -0.00120   -0.02364
 13 Cu    0.01763    0.01449   -0.00487
 14 Cu   -0.01159   -0.00304   -0.01167
 15 Cu   -0.01564   -0.00165    0.00250
 16 Cu   -0.01587    0.00801    0.01261
 17 Cu   -0.01385   -0.00022    0.01690
 18 Cu   -0.00669    0.00351   -0.00902
 19 Cu    0.01412   -0.00988   -0.02518
 20 Cu    0.02605    0.00312   -0.01990
 21 Cu   -0.01609    0.01246   -0.02076
 22 Cu    0.00271   -0.00107    0.03055
 23 Cu   -0.01242   -0.00138   -0.01062
 24 Cu    0.00995   -0.00040   -0.00891
 25 Cu   -0.00028   -0.00312    0.02451
 26 Cu   -0.00375    0.00366    0.01573
 27 Cu    0.00460    0.01256    0.02163
 28 Cu    0.01317    0.00159    0.01106
 29 Cu   -0.01402   -0.00521    0.02856
 30 Cu    0.00696    0.00778    0.00076
 31 Cu    0.01349   -0.00448   -0.00761
 32 Cu    0.01436   -0.00647   -0.00029
 33 Cu    0.01828   -0.00494    0.00921
 34 Cu   -0.02042    0.00393    0.02257
 35 Cu   -0.01288    0.01224    0.00569
 36 Cu    0.01652    0.03038   -0.05395
 37 Cu    0.03499   -0.00418    0.00909
 38 Cu    0.00236   -0.00987   -0.02277
 39 Cu    0.01163    0.01835   -0.02785
 40 Cu    0.00173    0.02413    0.00103
 41 Cu    0.07010   -0.00618    0.06279
 42 Cu    0.01246   -0.00368    0.00982
 43 Cu    0.03051    0.00544   -0.00172
 44 Cu    0.05518   -0.02119    0.00627
 45 Cu    0.07635    0.00415   -0.04459
 46 Cu    0.01375   -0.00282    0.01583
 47 Cu   -0.03738    0.01662    0.02399
 48 Cu   -0.01671    0.00328   -0.01379
 49 Cu    0.04179   -0.01936   -0.02406
 50 Cu   -0.04977    0.02259   -0.00236
 51 Cu   -0.07580   -0.00405    0.04484
 52 Cu   -0.01380    0.00349   -0.00939
 53 Cu   -0.03087   -0.00309    0.00042
 54 Cu   -0.00101   -0.02584   -0.00176
 55 Cu   -0.07398    0.00595   -0.04651
 56 Cu   -0.00380    0.00979    0.02241
 57 Cu   -0.01270   -0.01933    0.02478
 58 Cu   -0.01817   -0.02512    0.05091
 59 Cu   -0.03408    0.00413   -0.00987
 60 Cu    0.02289   -0.00385   -0.02734
 61 Cu    0.01259   -0.01249   -0.00533
 62 Cu   -0.01505    0.00565   -0.00023
 63 Cu   -0.01888    0.00495   -0.00888
 64 Cu   -0.00642   -0.00766    0.00118
 65 Cu   -0.01328    0.00368    0.00915
 66 Cu   -0.01412   -0.00086   -0.01027
 67 Cu    0.01396    0.00511   -0.02902
 68 Cu    0.00517   -0.00387   -0.01563
 69 Cu   -0.00447   -0.01234   -0.02028
 70 Cu   -0.01026    0.00040    0.00971
 71 Cu   -0.00078    0.00316   -0.02454
 72 Cu   -0.00296    0.00101   -0.02951
 73 Cu    0.01208    0.00138    0.01067
 74 Cu   -0.02575   -0.00281    0.02118
 75 Cu    0.01630   -0.01276    0.02213
 76 Cu    0.00592   -0.00420    0.00947
 77 Cu   -0.01418    0.01011    0.02547
 78 Cu    0.01584   -0.00822   -0.01229
 79 Cu    0.01417    0.00099   -0.01528
 80 Cu    0.01067    0.00374    0.01147
 81 Cu    0.02059    0.00145   -0.01228
 82 Cu    0.00032    0.00108    0.02161
 83 Cu   -0.01783   -0.01423    0.00536
 84 Cu    0.02104   -0.03083   -0.05656
 85 Cu   -0.02860    0.00704    0.00905
 86 Cu   -0.00586    0.00101    0.01181
 87 Cu    0.00050   -0.01564   -0.03125
 88 Cu    0.00877   -0.02389    0.00118
 89 Cu    0.01004    0.00501    0.00862
 90 Cu   -0.04013    0.00068    0.02962
 91 Cu    0.02364   -0.00244   -0.00820
 92 Cu    0.05650    0.01797    0.00377
 93 Cu   -0.02948    0.00852    0.02059
 94 Cu    0.02347    0.00993   -0.02249
 95 Cu   -0.03017   -0.01191    0.01574
 96 Cl    0.06217   -0.00960   -0.04320
 97 Cl   -0.00275   -0.00355   -0.08992
 98 Cl    0.03700    0.05372   -0.03802
 99 Cl    0.04579   -0.05028   -0.04544
100 Cl    0.07023   -0.00280   -0.03883
101 Cl    0.05795   -0.00187    0.01630
102 Cl    0.04213    0.00096   -0.07746
103 Cl   -0.03839   -0.00083    0.05470
104 Cl   -0.05600    0.00176   -0.03052
105 Cl   -0.03851   -0.05481    0.03966
106 Cl   -0.04807    0.05151    0.04738
107 Cl    0.01011    0.00340    0.05254
108 Cl   -0.06312    0.00905    0.04431
109 Cl   -0.07101    0.00333    0.03957

System changes: positions 

Initializing position-dependent things.

Density initialized from wave functions
      .----------------------------.  
     /|                            |  
    / |                            |  
   /  |                            |  
  /   |                            |  
 *    |                            |  
 |    |                            |  
 |    |                            |  
 |    |                            |  
 |    |                            |  
 |    |                            |  
 |    |                            |  
 |    |Cl             Cl           |  
 |    |      CCl    Cu     Clu     |  
 |    |       Cu                   |  
 |  Cl| Cu Cl    Cu    CuCl     Cu |  
 |    | Cu Cu    Cu   Cu Cu    Cu  |  
 |    |    Cu             Cu       |  
 |   CCu   Cu       Cu    Cu Cu    |  
 |   Cu    Cu Cu    Cu Cu    Cu    |  
 |    |  Cu   Cu    Cu Cu    Cu   Cu  
 |    | Cu    Cu       Cu    Cu    |  
 | Cu | Cu  CuCu Cu    Cu CuCu     |  
 |    |     Cu   Cu    Cu Cu    Cu |  
 |    |    Cu    Cu Cu    Cu   CCu |  
 |    Cu   Cu       Cu    Cu       |  
 |    Cu   Cu  Cu   Cu    Cu Cu    |  
 |    |  Cu   Cu       Cu    Cu   Cu  
 | Cu |  Cu   Cu       Cu    Cu    |  
 | Cu | Cu  Cu Cu Cu         Cu    |  
 |    |     Cu   Cu  ClCu Cu    Cu |  
 |    |     Cu             Cu      |  
 |    Cu    Cl Cu  CCu     Cl      |  
 |    |                            |  
 |    |  Cl              Cl        |  
 Cl   |                            |  
 |    |                            |  
 |    |                            |  
 |    |                            |  
 |    |                            |  
 |    |                            |  
 |    .----------------------------.  
 |   /                            /   
 |  /                            /    
 | /                            /     
 |/                            /      
 *----------------------------*       

Positions:
   0 Cu     3.474203   -0.003071    9.895037    ( 0.0000,  0.0000,  0.0000)
   1 Cu     1.491612    1.814773   10.501255    ( 0.0000,  0.0000,  0.0000)
   2 Cu     7.357248    1.865947   10.411663    ( 0.0000,  0.0000,  0.0000)
   3 Cu     9.280663   -0.006066    9.929422    ( 0.0000,  0.0000,  0.0000)
   4 Cu    11.431877   -0.000812   11.295302    ( 0.0000,  0.0000,  0.0000)
   5 Cu     9.700013    1.873901   11.742416    ( 0.0000,  0.0000,  0.0000)
   6 Cu     3.837125    1.838209   11.770347    ( 0.0000,  0.0000,  0.0000)
   7 Cu     5.616374    0.003977   11.269676    ( 0.0000,  0.0000,  0.0000)
   8 Cu     7.992029   -0.000285   12.253309    ( 0.0000,  0.0000,  0.0000)
   9 Cu     6.224879    1.847652   12.916019    ( 0.0000,  0.0000,  0.0000)
  10 Cu     0.365907    1.850511   12.909723    ( 0.0000,  0.0000,  0.0000)
  11 Cu     2.129893   -0.000098   12.313895    ( 0.0000,  0.0000,  0.0000)
  12 Cu     4.424526    0.002077   13.505702    ( 0.0000,  0.0000,  0.0000)
  13 Cu     2.643701    1.854264   14.113560    ( 0.0000,  0.0000,  0.0000)
  14 Cu     8.506208    1.850016   14.088793    ( 0.0000,  0.0000,  0.0000)
  15 Cu    10.263948   -0.001720   13.508632    ( 0.0000,  0.0000,  0.0000)
  16 Cu     0.895574    0.000031   14.674850    ( 0.0000,  0.0000,  0.0000)
  17 Cu    10.832922    1.853500   15.247777    ( 0.0000,  0.0000,  0.0000)
  18 Cu     4.978724    1.847956   15.265533    ( 0.0000,  0.0000,  0.0000)
  19 Cu     6.752604   -0.001329   14.671546    ( 0.0000,  0.0000,  0.0000)
  20 Cu     9.058182   -0.002295   15.844721    ( 0.0000,  0.0000,  0.0000)
  21 Cu     7.294934    1.850868   16.435656    ( 0.0000,  0.0000,  0.0000)
  22 Cu     1.434059    1.847636   16.446847    ( 0.0000,  0.0000,  0.0000)
  23 Cu     3.215291   -0.001347   15.841850    ( 0.0000,  0.0000,  0.0000)
  24 Cu     5.526239   -0.003282   17.014142    ( 0.0000,  0.0000,  0.0000)
  25 Cu     3.748024    1.849413   17.609583    ( 0.0000,  0.0000,  0.0000)
  26 Cu     9.606501    1.848674   17.611456    ( 0.0000,  0.0000,  0.0000)
  27 Cu    11.370512   -0.000009   17.007821    ( 0.0000,  0.0000,  0.0000)
  28 Cu     1.983345   -0.002796   18.197468    ( 0.0000,  0.0000,  0.0000)
  29 Cu     0.215224    1.848433   18.782755    ( 0.0000,  0.0000,  0.0000)
  30 Cu     6.063165    1.850067   18.776624    ( 0.0000,  0.0000,  0.0000)
  31 Cu     7.830437    0.003360   18.207585    ( 0.0000,  0.0000,  0.0000)
  32 Cu    10.158490    0.000251   19.366090    ( 0.0000,  0.0000,  0.0000)
  33 Cu     8.396348    1.848975   19.949612    ( 0.0000,  0.0000,  0.0000)
  34 Cu     2.543729    1.851617   19.950277    ( 0.0000,  0.0000,  0.0000)
  35 Cu     4.314153    0.003439   19.345918    ( 0.0000,  0.0000,  0.0000)
  36 Cu     6.595361   -0.000469   20.545450    ( 0.0000,  0.0000,  0.0000)
  37 Cu     4.836978    1.849163   21.181152    ( 0.0000,  0.0000,  0.0000)
  38 Cu    10.688954    1.851910   21.178752    ( 0.0000,  0.0000,  0.0000)
  39 Cu     0.733298   -0.003307   20.547011    ( 0.0000,  0.0000,  0.0000)
  40 Cu     3.118900   -0.014247   21.684657    ( 0.0000,  0.0000,  0.0000)
  41 Cu     1.373666    1.854374   22.176409    ( 0.0000,  0.0000,  0.0000)
  42 Cu     7.152014    1.849728   22.197110    ( 0.0000,  0.0000,  0.0000)
  43 Cu     8.964781    0.022897   21.714210    ( 0.0000,  0.0000,  0.0000)
  44 Cu    11.306521    0.017805   23.051540    ( 0.0000,  0.0000,  0.0000)
  45 Cu     9.308303    1.844888   23.501526    ( 0.0000,  0.0000,  0.0000)
  46 Cu     3.592924    1.843869   23.477294    ( 0.0000,  0.0000,  0.0000)
  47 Cu     5.468916   -0.037814   22.955758    ( 0.0000,  0.0000,  0.0000)
  48 Cu     3.366406    3.707506    9.980754    ( 0.0000,  0.0000,  0.0000)
  49 Cu     1.490990    5.589351   10.503037    ( 0.0000,  0.0000,  0.0000)
  50 Cu     7.356730    5.533728   10.407055    ( 0.0000,  0.0000,  0.0000)
  51 Cu     9.355233    3.706425    9.956275    ( 0.0000,  0.0000,  0.0000)
  52 Cu    11.511036    3.701757   11.261890    ( 0.0000,  0.0000,  0.0000)
  53 Cu     9.698402    5.528451   11.744686    ( 0.0000,  0.0000,  0.0000)
  54 Cu     3.840502    5.565711   11.774401    ( 0.0000,  0.0000,  0.0000)
[...]
  21 Cu     7.288806    1.849295   16.428113    ( 0.0000,  0.0000,  0.0000)
  22 Cu     1.430571    1.849563   16.449823    ( 0.0000,  0.0000,  0.0000)
  23 Cu     3.192209   -0.002515   15.844563    ( 0.0000,  0.0000,  0.0000)
  24 Cu     5.527269   -0.001336   17.010999    ( 0.0000,  0.0000,  0.0000)
  25 Cu     3.765358    1.849043   17.607184    ( 0.0000,  0.0000,  0.0000)
  26 Cu     9.621704    1.851294   17.610253    ( 0.0000,  0.0000,  0.0000)
  27 Cu    11.374756   -0.000986   17.021415    ( 0.0000,  0.0000,  0.0000)
  28 Cu     2.010088    0.000592   18.193009    ( 0.0000,  0.0000,  0.0000)
  29 Cu     0.248453    1.849471   18.778563    ( 0.0000,  0.0000,  0.0000)
  30 Cu     6.108385    1.851681   18.758693    ( 0.0000,  0.0000,  0.0000)
  31 Cu     7.863650    0.002909   18.190517    ( 0.0000,  0.0000,  0.0000)
  32 Cu    10.206054   -0.003221   19.356568    ( 0.0000,  0.0000,  0.0000)
  33 Cu     8.462995    1.851811   19.934027    ( 0.0000,  0.0000,  0.0000)
  34 Cu     2.594642    1.853404   19.938008    ( 0.0000,  0.0000,  0.0000)
  35 Cu     4.357130    0.006273   19.339388    ( 0.0000,  0.0000,  0.0000)
  36 Cu     6.667560   -0.001092   20.517122    ( 0.0000,  0.0000,  0.0000)
  37 Cu     4.920707    1.856101   21.146145    ( 0.0000,  0.0000,  0.0000)
  38 Cu    10.779900    1.848326   21.160509    ( 0.0000,  0.0000,  0.0000)
  39 Cu     0.807193   -0.001373   20.537649    ( 0.0000,  0.0000,  0.0000)
  40 Cu     3.198593   -0.001523   21.667811    ( 0.0000,  0.0000,  0.0000)
  41 Cu     1.449921    1.856699   22.180826    ( 0.0000,  0.0000,  0.0000)
  42 Cu     7.268977    1.850072   22.186048    ( 0.0000,  0.0000,  0.0000)
  43 Cu     9.040959    0.019481   21.694805    ( 0.0000,  0.0000,  0.0000)
  44 Cu    11.444913   -0.019569   22.978806    ( 0.0000,  0.0000,  0.0000)
  45 Cu     9.482418    1.846397   23.460893    ( 0.0000,  0.0000,  0.0000)
  46 Cu     3.675554    1.846897   23.517605    ( 0.0000,  0.0000,  0.0000)
  47 Cu     5.568263    0.003877   22.867603    ( 0.0000,  0.0000,  0.0000)
  48 Cu     3.283585    3.704558    9.940395    ( 0.0000,  0.0000,  0.0000)
  49 Cu     1.390400    5.547549   10.590614    ( 0.0000,  0.0000,  0.0000)
  50 Cu     7.217872    5.571098   10.479246    ( 0.0000,  0.0000,  0.0000)
  51 Cu     9.180614    3.704968    9.997715    ( 0.0000,  0.0000,  0.0000)
  52 Cu    11.393884    3.701412   11.272184    ( 0.0000,  0.0000,  0.0000)
  53 Cu     9.621806    5.531996   11.763936    ( 0.0000,  0.0000,  0.0000)
  54 Cu     3.760474    5.553063   11.790565    ( 0.0000,  0.0000,  0.0000)
  55 Cu     5.509056    3.694844   11.277536    ( 0.0000,  0.0000,  0.0000)
  56 Cu     7.882944    3.703152   12.297796    ( 0.0000,  0.0000,  0.0000)
  57 Cu     6.152038    5.552868   12.920729    ( 0.0000,  0.0000,  0.0000)
  58 Cu     0.291746    5.552565   12.941265    ( 0.0000,  0.0000,  0.0000)
  59 Cu     2.038590    3.695352   12.312270    ( 0.0000,  0.0000,  0.0000)
  60 Cu     4.364803    3.698058   13.520605    ( 0.0000,  0.0000,  0.0000)
  61 Cu     2.602404    5.545236   14.119114    ( 0.0000,  0.0000,  0.0000)
  62 Cu     8.456771    5.554696   14.102082    ( 0.0000,  0.0000,  0.0000)
  63 Cu    10.200123    3.699688   13.524472    ( 0.0000,  0.0000,  0.0000)
  64 Cu     0.851248    3.699810   14.699767    ( 0.0000,  0.0000,  0.0000)
  65 Cu    10.799548    5.548628   15.267979    ( 0.0000,  0.0000,  0.0000)
  66 Cu     4.949633    5.550841   15.265498    ( 0.0000,  0.0000,  0.0000)
  67 Cu     6.710981    3.702028   14.679983    ( 0.0000,  0.0000,  0.0000)
  68 Cu     9.041513    3.700187   15.848244    ( 0.0000,  0.0000,  0.0000)
  69 Cu     7.288537    5.552436   16.437299    ( 0.0000,  0.0000,  0.0000)
  70 Cu     1.432413    5.552812   16.447585    ( 0.0000,  0.0000,  0.0000)
  71 Cu     3.194336    3.702423   15.851350    ( 0.0000,  0.0000,  0.0000)
  72 Cu     5.529169    3.701918   17.008695    ( 0.0000,  0.0000,  0.0000)
  73 Cu     3.767520    5.554006   17.613870    ( 0.0000,  0.0000,  0.0000)
  74 Cu     9.618056    5.551482   17.611548    ( 0.0000,  0.0000,  0.0000)
  75 Cu    11.374399    3.702215   17.030517    ( 0.0000,  0.0000,  0.0000)
  76 Cu     2.008249    3.702162   18.188705    ( 0.0000,  0.0000,  0.0000)
  77 Cu     0.248936    5.553752   18.777871    ( 0.0000,  0.0000,  0.0000)
  78 Cu     6.105605    5.551278   18.764029    ( 0.0000,  0.0000,  0.0000)
  79 Cu     7.863669    3.699224   18.191807    ( 0.0000,  0.0000,  0.0000)
  80 Cu    10.206019    3.705811   19.361788    ( 0.0000,  0.0000,  0.0000)
  81 Cu     8.454277    5.551839   19.941608    ( 0.0000,  0.0000,  0.0000)
  82 Cu     2.592236    5.551729   19.938340    ( 0.0000,  0.0000,  0.0000)
  83 Cu     4.356205    3.697646   19.336417    ( 0.0000,  0.0000,  0.0000)
  84 Cu     6.664938    3.704555   20.520978    ( 0.0000,  0.0000,  0.0000)
  85 Cu     4.904371    5.552064   21.131259    ( 0.0000,  0.0000,  0.0000)
  86 Cu    10.760111    5.554822   21.175492    ( 0.0000,  0.0000,  0.0000)
  87 Cu     0.806999    3.704475   20.533146    ( 0.0000,  0.0000,  0.0000)
  88 Cu     3.201822    3.706826   21.673783    ( 0.0000,  0.0000,  0.0000)
  89 Cu     1.452531    5.548723   22.190612    ( 0.0000,  0.0000,  0.0000)
  90 Cu     7.289471    5.557170   22.169693    ( 0.0000,  0.0000,  0.0000)
  91 Cu     9.040314    3.681839   21.697531    ( 0.0000,  0.0000,  0.0000)
  92 Cu    11.437246    3.720713   22.962911    ( 0.0000,  0.0000,  0.0000)
  93 Cu     9.495617    5.549835   23.525216    ( 0.0000,  0.0000,  0.0000)
  94 Cu     3.661698    5.562296   23.553005    ( 0.0000,  0.0000,  0.0000)
  95 Cu     5.572037    3.705500   22.884468    ( 0.0000,  0.0000,  0.0000)
  96 Cl    10.082560    3.621234   24.895103    ( 0.0000,  0.0000,  0.0000)
  97 Cl     7.241695    5.494069   24.424966    ( 0.0000,  0.0000,  0.0000)
  98 Cl     4.450716    3.667884   24.903540    ( 0.0000,  0.0000,  0.0000)
  99 Cl     4.498478    0.038332   24.905200    ( 0.0000,  0.0000,  0.0000)
 100 Cl    10.052231    0.067324   24.900317    ( 0.0000,  0.0000,  0.0000)
 101 Cl    13.063200    5.563072   24.455075    ( 0.0000,  0.0000,  0.0000)
 102 Cl    13.085089    1.829619   24.433050    ( 0.0000,  0.0000,  0.0000)
 103 Cl     5.578106    3.722104    9.025535    ( 0.0000,  0.0000,  0.0000)
 104 Cl     5.600050   -0.011648    9.003746    ( 0.0000,  0.0000,  0.0000)
 105 Cl     2.508695    1.883631    8.554451    ( 0.0000,  0.0000,  0.0000)
 106 Cl     2.460588    5.513258    8.552997    ( 0.0000,  0.0000,  0.0000)
 107 Cl    -0.281712    0.058087    9.032985    ( 0.0000,  0.0000,  0.0000)
 108 Cl    -3.122843    1.930268    8.563233    ( 0.0000,  0.0000,  0.0000)
 109 Cl    -3.091996    5.484149    8.558103    ( 0.0000,  0.0000,  0.0000)

Unit cell:
           periodic     x           y           z      points  spacing
  1. axis:    yes   11.703590    0.000000    0.000000    70     0.1672
  2. axis:    yes    0.000000    7.402000    0.000000    42     0.1762
  3. axis:    no     0.000000    0.000000   33.459128   192     0.1743

  Lengths:  11.703590   7.402000  33.459128
  Angles:   90.000000  90.000000  90.000000

Effective grid spacing dv^(1/3) = 0.1725

     iter     time        total  log10-change:
                         energy  eigst   dens
iter:   1 00:18:45 -7787.717490  -4.02
iter:   2 00:23:06 -7787.703720  -4.09  -3.04
iter:   3 00:27:35 -7787.681054c -4.57  -3.12
iter:   4 00:32:04 -7787.661160c -5.45  -3.27
iter:   5 00:36:33 -7787.660773c -5.80  -3.86
iter:   6 00:41:03 -7787.660690c -6.36  -4.11c
iter:   7 00:45:33 -7787.660578c -6.71  -4.27c
iter:   8 00:50:02 -7787.660585c -7.59c -4.43c

Converged after 8 iterations.

Dipole moment: (38.204523, -12.041156, -0.000007) |e|*Ang

Energy contributions relative to reference atoms: (reference = -4497828.668287)

Kinetic:       +820.308485
Potential:     -885.597672
External:        +0.000000
XC:            -7720.673759
Entropy (-ST):   -0.938284
Local:           -1.228498
--------------------------
Free energy:   -7788.129727
Extrapolated:  -7787.660585

Showing only first 2 kpts
 Kpt  Band  Eigenvalues  Occupancy
  0   575      0.29836    0.76868
  0   576      0.30810    0.72314
  0   577      0.36874    0.47193
  0   578      0.44366    0.25480

  1   575     -0.14941    1.96426
  1   576      0.02511    1.81125
  1   577      0.06318    1.73537
  1   578      0.15382    1.45193


Fermi level: 0.25125

No gap

Forces in eV/Ang:
  0 Cu    0.00109    0.00094   -0.00813
  1 Cu   -0.00572    0.00090   -0.00339
  2 Cu   -0.00750   -0.00091   -0.00037
  3 Cu   -0.00123    0.00117   -0.00143
  4 Cu    0.00189    0.00209   -0.00238
  5 Cu   -0.00322    0.00151    0.00326
  6 Cu   -0.00327    0.00052   -0.00655
  7 Cu   -0.00689    0.00154    0.00622
  8 Cu   -0.00815    0.00142   -0.00113
  9 Cu   -0.00328   -0.00178   -0.00286
 10 Cu   -0.00357   -0.00096    0.00085
 11 Cu   -0.00658   -0.00085    0.00008
 12 Cu   -0.00129    0.00222    0.00638
 13 Cu   -0.00095    0.00201    0.00116
 14 Cu   -0.00016   -0.00299    0.00083
 15 Cu   -0.00481   -0.00190   -0.00292
 16 Cu   -0.00188    0.00065    0.00096
 17 Cu   -0.00098   -0.00121   -0.00447
 18 Cu    0.00282   -0.00196   -0.00423
 19 Cu    0.00080   -0.00036   -0.00293
 20 Cu   -0.00048    0.00060    0.00009
 21 Cu   -0.00223    0.00016   -0.00078
 22 Cu    0.00122   -0.00064   -0.00085
 23 Cu   -0.00147   -0.00116    0.00358
 24 Cu    0.00101   -0.00058    0.00126
 25 Cu   -0.00058   -0.00085   -0.00153
 26 Cu    0.00052    0.00044    0.00016
 27 Cu    0.00279    0.00070   -0.00466
 28 Cu    0.00037   -0.00194    0.00282
 29 Cu   -0.00077   -0.00065   -0.00027
 30 Cu   -0.00071    0.00020    0.00172
 31 Cu   -0.00019   -0.00154    0.00209
 32 Cu   -0.00027   -0.00312   -0.00247
 33 Cu    0.00125   -0.00227   -0.00132
 34 Cu    0.00829    0.00095   -0.00454
 35 Cu    0.00385    0.00140   -0.00222
 36 Cu    0.00250   -0.00011   -0.00298
 37 Cu    0.00580   -0.00133    0.00656
 38 Cu    0.00672    0.00227    0.00092
 39 Cu    0.00525   -0.00347    0.00216
 40 Cu    0.00161   -0.00004    0.00610
 41 Cu   -0.00424   -0.00036    0.00503
 42 Cu   -0.00109    0.00132    0.00910
 43 Cu    0.00568    0.00219   -0.00166
 44 Cu    0.00517   -0.00021    0.00123
 45 Cu    0.00761    0.00168   -0.00183
 46 Cu   -0.00115   -0.00016    0.01099
 47 Cu    0.00464    0.00054    0.00174
 48 Cu    0.00054    0.00022   -0.01054
 49 Cu   -0.00339   -0.00158   -0.00233
 50 Cu   -0.00481    0.00083   -0.00122
 51 Cu   -0.00780   -0.00161    0.00127
 52 Cu    0.00126   -0.00133   -0.00927
 53 Cu   -0.00484   -0.00163    0.00019
 54 Cu   -0.00150   -0.00064   -0.00646
 55 Cu    0.00487    0.00029   -0.00252
 56 Cu   -0.00774   -0.00233   -0.00049
 57 Cu   -0.00520    0.00240   -0.00164
 58 Cu   -0.00267    0.00171    0.00199
 59 Cu   -0.00553    0.00125   -0.00797
 60 Cu   -0.00731   -0.00091    0.00367
 61 Cu   -0.00340   -0.00160    0.00236
 62 Cu    0.00023    0.00287    0.00192
 63 Cu   -0.00166    0.00213    0.00130
 64 Cu    0.00058   -0.00028   -0.00076
 65 Cu    0.00060    0.00123   -0.00103
 66 Cu   -0.00017    0.00214   -0.00222
 67 Cu    0.00058    0.00059   -0.00004
 68 Cu   -0.00028   -0.00052    0.00089
 69 Cu   -0.00313   -0.00048    0.00534
 70 Cu   -0.00089    0.00034   -0.00065
 71 Cu    0.00105    0.00082    0.00228
 72 Cu   -0.00132    0.00093    0.00169
 73 Cu    0.00210    0.00118   -0.00264
 74 Cu    0.00050   -0.00053    0.00130
 75 Cu    0.00225   -0.00036    0.00113
 76 Cu   -0.00260    0.00177    0.00437
 77 Cu   -0.00138    0.00042    0.00329
 78 Cu    0.00185   -0.00059   -0.00145
 79 Cu    0.00133    0.00150    0.00569
 80 Cu    0.00016    0.00314   -0.00131
 81 Cu    0.00641    0.00199    0.00064
 82 Cu    0.00215   -0.00229   -0.00570
 83 Cu    0.00135   -0.00177   -0.00090
 84 Cu    0.00330   -0.00066   -0.00202
 85 Cu    0.00567    0.00091   -0.00065
 86 Cu    0.00761   -0.00139    0.00113
 87 Cu    0.00324    0.00279    0.00319
 88 Cu    0.00329    0.00019    0.00620
 89 Cu    0.00750   -0.00153   -0.00924
 90 Cu   -0.00288   -0.00212    0.01154
 91 Cu    0.00408   -0.00211   -0.00444
 92 Cu    0.00775    0.00035    0.00031
 93 Cu   -0.00179   -0.00124    0.00149
 94 Cu   -0.00093   -0.00100    0.00812
 95 Cu    0.00702    0.00017    0.00290
 96 Cl    0.00609    0.00318    0.00534
 97 Cl   -0.01376   -0.00830   -0.00627
 98 Cl    0.00372   -0.00179    0.00956
 99 Cl    0.00462   -0.00066    0.00921
100 Cl    0.00273   -0.00553    0.00992
101 Cl    0.01333   -0.00092    0.00628
102 Cl   -0.00198   -0.00076    0.00845
103 Cl    0.00161    0.00074   -0.01086
104 Cl   -0.01320    0.00094   -0.00783
105 Cl   -0.00397    0.00241   -0.01133
106 Cl   -0.00486    0.00000   -0.01127
107 Cl    0.01320    0.00835    0.00261
108 Cl   -0.00651   -0.00324   -0.00693
109 Cl   -0.00318    0.00555   -0.01152

Timing:                                      incl.     excl.
-------------------------------------------------------------------
Density initialized from wave functions:   378.685   378.683   0.4% |
 Symmetrize density:                         0.001     0.001   0.0% |
Forces:                                   2375.484  2375.484   2.4% ||
Hamiltonian:                               420.214     0.550   0.0% |
 Atomic:                                    14.311     2.664   0.0% |
  XC Correction:                            11.648    11.648   0.0% |
 Calculate atomic Hamiltonians:            170.681   170.681   0.2% |
 Communicate:                               14.602    14.602   0.0% |
 Initialize Hamiltonian:                     0.001     0.001   0.0% |
 Poisson:                                    0.250     0.250   0.0% |
 XC 3D grid:                               219.820    38.183   0.0% |
  VdW-DF integral:                         181.637     1.273   0.0% |
   Convolution:                             16.887    16.887   0.0% |
   FFT:                                      6.269     6.269   0.0% |
   gather:                                  52.627    52.627   0.1% |
   hmm1:                                    10.808    10.808   0.0% |
   hmm2:                                     8.273     8.273   0.0% |
   iFFT:                                     6.245     6.245   0.0% |
   potential:                               71.669     0.723   0.0% |
    collect:                                 8.739     8.739   0.0% |
    p1:                                     36.411    36.411   0.0% |
    p2:                                     12.643    12.643   0.0% |
    sum:                                    13.153    13.153   0.0% |
   splines:                                  7.586     7.586   0.0% |
LCAO initialization:                      1187.731     0.632   0.0% |
 LCAO eigensolver:                          67.368     0.003   0.0% |
  Blacs Orbital Layouts:                     9.667     0.001   0.0% |
   General diagonalize:                      9.626     9.626   0.0% |
   Redistribute coefs:                       0.026     0.026   0.0% |
   Send coefs to domains:                    0.015     0.015   0.0% |
  Calculate projections:                     0.031     0.031   0.0% |
  Distribute overlap matrix:                56.978     0.003   0.0% |
   Scalapack redistribute:                  34.478    34.478   0.0% |
   blocked summation:                       22.498    22.498   0.0% |
  Potential matrix:                          0.343     0.343   0.0% |
  SparseAtomicCorrection:                    0.034     0.034   0.0% |
  Sum over cells:                            0.311     0.311   0.0% |
 LCAO to grid:                            1096.382  1096.382   1.1% |
 Set positions (LCAO WFS):                  23.349     0.025   0.0% |
  Basic WFS set positions:                   0.007     0.007   0.0% |
  Basis functions set positions:             0.001     0.001   0.0% |
  P tci:                                     0.000     0.000   0.0% |
  ST tci:                                    1.210     1.210   0.0% |
  Scalapack redistribute:                    2.556     2.556   0.0% |
  blocked summation:                        19.213    19.213   0.0% |
  mktci:                                     0.336     0.336   0.0% |
PWDescriptor:                               11.926    11.926   0.0% |
Redistribute:                                0.027     0.027   0.0% |
SCF-cycle:                               94121.133  1294.118   1.3% ||
 Davidson:                               80425.653 24759.079  24.9% |---------|
  Apply H:                                5281.525  5209.900   5.2% |-|
   HMM T:                                   71.625    71.625   0.1% |
  Subspace diag:                         12574.222     0.077   0.0% |
   calc_h_matrix:                         8031.167  2392.154   2.4% ||
    Apply H:                              5639.013  5558.533   5.6% |-|
     HMM T:                                 80.480    80.480   0.1% |
   diagonalize:                            312.988   312.988   0.3% |
   rotate_psi:                            4229.989  4229.989   4.3% |-|
  calc. matrices:                        27339.550 16752.619  16.9% |------|
   Apply H:                              10586.931 10450.388  10.5% |---|
    HMM T:                                 136.543   136.543   0.1% |
  diagonalize:                            2124.016  2124.016   2.1% ||
  rotate_psi:                             8347.261  8347.261   8.4% |--|
 Density:                                 5840.593     0.022   0.0% |
  Atomic density matrices:                  11.943    11.943   0.0% |
  Mix:                                    2804.409  2804.409   2.8% ||
  Multipole moments:                         0.807     0.807   0.0% |
  Pseudo density:                         3023.413  3023.389   3.0% ||
   Symmetrize density:                       0.024     0.024   0.0% |
 Hamiltonian:                             5941.542     7.620   0.0% |
  Atomic:                                  199.124    29.831   0.0% |
   XC Correction:                          169.293   169.293   0.2% |
  Calculate atomic Hamiltonians:          2499.984  2499.984   2.5% ||
  Communicate:                             243.866   243.866   0.2% |
  Poisson:                                   3.557     3.557   0.0% |
  XC 3D grid:                             2987.390   490.751   0.5% |
   VdW-DF integral:                       2496.639    18.501   0.0% |
    Convolution:                           247.388   247.388   0.2% |
    FFT:                                    93.032    93.032   0.1% |
    gather:                                772.824   772.824   0.8% |
    hmm1:                                  123.743   123.743   0.1% |
    hmm2:                                  117.889   117.889   0.1% |
    iFFT:                                   91.544    91.544   0.1% |
    potential:                            1031.713    10.444   0.0% |
     collect:                              124.866   124.866   0.1% |
     p1:                                   531.151   531.151   0.5% |
     p2:                                   185.170   185.170   0.2% |
     sum:                                  180.082   180.082   0.2% |
    splines:                                 0.004     0.004   0.0% |
 Orthonormalize:                           619.227     0.009   0.0% |
  calc_s_matrix:                            78.201    78.201   0.1% |
  inverse-cholesky:                         22.357    22.357   0.0% |
  projections:                             384.249   384.249   0.4% |
  rotate_psi_s:                            134.410   134.410   0.1% |
Set symmetry:                                0.019     0.019   0.0% |
Other:                                     901.871   901.871   0.9% |
-------------------------------------------------------------------
Total:                                             99397.089 100.0%

Memory usage: 2.57 GiB
Date: Thu Oct 20 00:51:46 2022
