
  ___ ___ ___ _ _ _  
 |   |   |_  | | | | 
 | | | | | . | | | | 
 |__ |  _|___|_____|  22.1.0
 |___|_|             

User:   thorkong@node420.cluster
Date:   Thu Oct 20 00:52:20 2022
Arch:   x86_64
Pid:    20375
Python: 3.10.5
gpaw:   /groups/kemi/thorkong/miniconda3/envs/gpaw22/lib/python3.10/site-packages/gpaw
_gpaw:  /groups/kemi/thorkong/miniconda3/envs/gpaw22/lib/python3.10/site-packages/
        _gpaw.cpython-310-x86_64-linux-gnu.so
ase:    /groups/kemi/thorkong/miniconda3/envs/gpaw22/lib/python3.10/site-packages/ase (version 3.22.1)
numpy:  /groups/kemi/thorkong/miniconda3/envs/gpaw22/lib/python3.10/site-packages/numpy (version 1.23.0)
scipy:  /groups/kemi/thorkong/miniconda3/envs/gpaw22/lib/python3.10/site-packages/scipy (version 1.8.1)
libxc:  5.2.3
units:  Angstrom and eV
cores: 32
OpenMP: True
OMP_NUM_THREADS: 1

Input parameters:
  basis: dzp
  kpts: [4 4 1]
  mode: {ecut: 600.0,
         name: pw}
  xc: BEEF-vdW

System changes: positions, numbers, cell, pbc, initial_charges, initial_magmoms 

Initialize ...

Cu-setup:
  name: Copper
  id: f1c4d45d90492f1bbfdcb091e8418fdf
  Z: 29.0
  valence: 11
  core: 18
  charge: 0.0
  file: /groups/kemi/thorkong/miniconda3/envs/gpaw22/share/gpaw/Cu.PBE.gz
  compensation charges: gauss, rc=0.33, lmax=2
  cutoffs: 2.06(filt), 2.43(core),
  valence states:
                energy  radius
    4s(1.00)    -4.609   1.164
    4p(0.00)    -0.698   1.164
    3d(10.00)    -5.039   1.058
    *s          22.603   1.164
    *p          26.513   1.164
    *d          22.172   1.058

  LCAO basis set for Cu:
    Name: dzp
    File: /groups/kemi/thorkong/miniconda3/envs/gpaw22/share/gpaw/Cu.dzp.basis.gz
    Number of radial functions: 5
    Number of spherical harmonics: 15
      l=0, rc=8.9688 Bohr: 4s-sz confined orbital
      l=2, rc=5.1719 Bohr: 3d-sz confined orbital
      l=0, rc=5.3281 Bohr: 4s-dz split-valence wave
      l=2, rc=3.1406 Bohr: 3d-dz split-valence wave
      l=1, rc=8.9688 Bohr: p-type Gaussian polarization

Cl-setup:
  name: Chlorine
  id: 726897f06f34e53cf8e33b5885a02604
  Z: 17.0
  valence: 7
  core: 10
  charge: 0.0
  file: /groups/kemi/thorkong/miniconda3/envs/gpaw22/share/gpaw/Cl.PBE.gz
  compensation charges: gauss, rc=0.25, lmax=2
  cutoffs: 1.40(filt), 1.49(core),
  valence states:
                energy  radius
    3s(2.00)   -20.689   0.794
    3p(5.00)    -8.594   0.794
    *s           6.523   0.794
    *p          18.617   0.794
    *d           0.000   0.794

  LCAO basis set for Cl:
    Name: dzp
    File: /groups/kemi/thorkong/miniconda3/envs/gpaw22/share/gpaw/Cl.dzp.basis.gz
    Number of radial functions: 5
    Number of spherical harmonics: 13
      l=0, rc=5.1719 Bohr: 3s-sz confined orbital
      l=1, rc=6.2656 Bohr: 3p-sz confined orbital
      l=0, rc=2.8281 Bohr: 3s-dz split-valence wave
      l=1, rc=3.5156 Bohr: 3p-dz split-valence wave
      l=2, rc=6.2656 Bohr: d-type Gaussian polarization

Reference energy: -4422498.971913

Spin-paired calculation

Convergence criteria:
 Maximum [total energy] change in last 3 cyles: 0.0005 eV / electron
 Maximum integral of absolute [dens]ity change: 0.0001 electrons / valence electron
 Maximum integral of absolute [eigenst]ate change: 4e-08 eV^2 / valence electron
 Maximum number of scf [iter]ations: 333
 (Square brackets indicate name in SCF output, whereas a 'c' in
 the SCF output indicates the quantity has converged.)

Symmetries present (total): 1

  ( 1  0  0)
  ( 0  1  0)
  ( 0  0  1)

16 k-points: 4 x 4 x 1 Monkhorst-Pack grid
8 k-points in the irreducible part of the Brillouin zone
       k-points in crystal coordinates                weights
   0:     0.12500000   -0.37500000    0.00000000          2/16
   1:     0.12500000   -0.12500000    0.00000000          2/16
   2:     0.12500000    0.12500000    0.00000000          2/16
   3:     0.12500000    0.37500000    0.00000000          2/16
   4:     0.37500000   -0.37500000    0.00000000          2/16
   5:     0.37500000   -0.12500000    0.00000000          2/16
   6:     0.37500000    0.12500000    0.00000000          2/16
   7:     0.37500000    0.37500000    0.00000000          2/16

Wave functions: Plane wave expansion
  Cutoff energy: 600.000 eV
  Number of coefficients (min, max): 96699, 96750
  Pulay-stress correction: 0.000000 eV/Ang^3 (de/decut=0.000000)
  Using FFTW library
  ScaLapack parameters: grid=2x2, blocksize=64
  Wavefunction extrapolation:
    Improved wavefunction reuse through dual PAW basis 

Occupation numbers: Fermi-Dirac: width=0.1000 eV
 

Eigensolver
   Davidson(niter=2) 

Densities:
  Coarse grid: 70*42*192 grid
  Fine grid: 140*84*384 grid
  Total Charge: 0.000000 

Density mixing:
  Method: separate
  Backend: pulay
  Linear mixing parameter: 0.05
  Mixing with 5 old densities
  Damping of long wave oscillations: 50 

Hamiltonian:
  XC and Coulomb potentials evaluated on a 140*84*384 grid
  Using the BEEF-vdW Exchange-Correlation functional
  External potential:
    NoExternalPotential
 

XC parameters: BEEF-vdW with 2 nearest neighbor stencil

Memory estimate:
  Process memory now: 341.41 MiB
  Calculator: 2180.95 MiB
    Density: 70.86 MiB
      Arrays: 27.99 MiB
      Localized functions: 32.10 MiB
      Mixer: 10.77 MiB
    Hamiltonian: 19.09 MiB
      Arrays: 18.30 MiB
      XC: 0.00 MiB
      Poisson: 0.00 MiB
      vbar: 0.78 MiB
    Wavefunctions: 2091.01 MiB
      Arrays psit_nG: 992.07 MiB
      Eigensolver: 1068.37 MiB
      Projections: 4.70 MiB
      Projectors: 3.69 MiB
      PW-descriptor: 22.18 MiB

Total number of cores used: 32
Parallelization over k-points: 8
Domain decomposition: 1 x 1 x 4
                      2 x 2 x 8 (xc only)

Number of atoms: 104
Number of atomic orbitals: 1544
Number of bands in calculation: 672
Number of valence electrons: 1112
Bands to converge: occupied

... initialized

Initializing position-dependent things.

Density initialized from atomic densities
Creating initial wave functions:
  672 bands from LCAO basis set

      .----------------------------.  
     /|                            |  
    / |                            |  
   /  |                            |  
  /   |                            |  
 *    |                            |  
 |    |                            |  
 |    |                            |  
 |    |                            |  
 |    |                            |  
 |    |                            |  
 |    |          Cl            Cl  |  
 |    |                            |  
 |    |       Cu    Cu            Cu  
 |    |       Cl            CCl    |  
 |    | Cu             Cu          |  
 |    | Cu  Cu   Cu    Cu Cu    Cu |  
 |    |    Cu    Cu Cu    Cu   Cu  |  
 |    Cu   Cu       Cu    Cu       |  
 |   Cu    Cu  Cu   Cu   Cu  Cu    |  
 |    |  Cu   Cu    Cu Cu    Cu   Cu  
 |    | Cu    Cu       Cu    Cu    |  
 | Cu | Cu    Cu Cu    Cu   Cu     |  
 |    | Cu  Cu   Cu    Cu Cu    Cu |  
 |    |    Cu    Cu       Cu   Cu  |  
 |    Cu   Cu    Cu Cu    Cu       |  
 |   CCu   Cu Cu    Cu   Cu  Cu    |  
 |    |       Cu    Cu       Cu   Cu  
 |    | CCu   Cu       Cu   Cu     |  
 | Cu | Cu    Cu Cu    Cu   Cu     |  
 |    |    Cu    Cu       Cu    Cu |  
 |    |    Cu             Cu       |  
 |    Cu            Cu             |  
 |    |                            |  
 |    |  Cl            Cl          |  
 |    |                            |  
 |    |                            |  
 |    |                            |  
 |    |                            |  
 |    |                            |  
 |    |                            |  
 |    .----------------------------.  
 |   /                            /   
 |  /                            /    
 | /                            /     
 |/                            /      
 *----------------------------*       

Positions:
   0 Cu     3.205043   -0.037130    9.967512    ( 0.0000,  0.0000,  0.0000)
   1 Cu     1.388256    1.767030   10.584299    ( 0.0000,  0.0000,  0.0000)
   2 Cu     7.251914    1.779893   10.569105    ( 0.0000,  0.0000,  0.0000)
   3 Cu     8.987756   -0.094662   10.104481    ( 0.0000,  0.0000,  0.0000)
   4 Cu    11.313365   -0.078690   11.190630    ( 0.0000,  0.0000,  0.0000)
   5 Cu     9.585430    1.777011   11.746732    ( 0.0000,  0.0000,  0.0000)
   6 Cu     3.738335    1.775279   11.754124    ( 0.0000,  0.0000,  0.0000)
   7 Cu     5.494198   -0.070658   11.118717    ( 0.0000,  0.0000,  0.0000)
   8 Cu     7.807991   -0.066198   12.301836    ( 0.0000,  0.0000,  0.0000)
   9 Cu     6.088154    1.775531   12.907956    ( 0.0000,  0.0000,  0.0000)
  10 Cu     0.230768    1.778257   12.911984    ( 0.0000,  0.0000,  0.0000)
  11 Cu     2.006269   -0.070393   12.333484    ( 0.0000,  0.0000,  0.0000)
  12 Cu     4.347979   -0.072164   13.480994    ( 0.0000,  0.0000,  0.0000)
  13 Cu     2.577461    1.787040   14.101981    ( 0.0000,  0.0000,  0.0000)
  14 Cu     8.434437    1.774914   14.102608    ( 0.0000,  0.0000,  0.0000)
  15 Cu    10.189652   -0.069786   13.507644    ( 0.0000,  0.0000,  0.0000)
  16 Cu     0.836420   -0.071567   14.675233    ( 0.0000,  0.0000,  0.0000)
  17 Cu    10.787968    1.785120   15.268754    ( 0.0000,  0.0000,  0.0000)
  18 Cu     4.933513    1.774190   15.260960    ( 0.0000,  0.0000,  0.0000)
  19 Cu     6.692435   -0.072215   14.674970    ( 0.0000,  0.0000,  0.0000)
  20 Cu     9.036996   -0.068949   15.845062    ( 0.0000,  0.0000,  0.0000)
  21 Cu     7.277964    1.781524   16.440039    ( 0.0000,  0.0000,  0.0000)
  22 Cu     1.428538    1.776629   16.445053    ( 0.0000,  0.0000,  0.0000)
  23 Cu     3.186835   -0.070737   15.837822    ( 0.0000,  0.0000,  0.0000)
  24 Cu     5.532422   -0.072107   17.017107    ( 0.0000,  0.0000,  0.0000)
  25 Cu     3.772343    1.779694   17.611837    ( 0.0000,  0.0000,  0.0000)
  26 Cu     9.622204    1.781979   17.623276    ( 0.0000,  0.0000,  0.0000)
  27 Cu    11.379550   -0.069666   17.015567    ( 0.0000,  0.0000,  0.0000)
  28 Cu     2.020658   -0.076151   18.194910    ( 0.0000,  0.0000,  0.0000)
  29 Cu     0.268666    1.777649   18.783431    ( 0.0000,  0.0000,  0.0000)
  30 Cu     6.118089    1.781714   18.784069    ( 0.0000,  0.0000,  0.0000)
  31 Cu     7.876814   -0.064278   18.193336    ( 0.0000,  0.0000,  0.0000)
  32 Cu    10.229159   -0.075642   19.361014    ( 0.0000,  0.0000,  0.0000)
  33 Cu     8.461280    1.780215   19.980703    ( 0.0000,  0.0000,  0.0000)
  34 Cu     2.618458    1.780689   19.950853    ( 0.0000,  0.0000,  0.0000)
  35 Cu     4.377785   -0.061143   19.352628    ( 0.0000,  0.0000,  0.0000)
  36 Cu     6.727126   -0.070133   20.545104    ( 0.0000,  0.0000,  0.0000)
  37 Cu     5.003418    1.782650   21.157164    ( 0.0000,  0.0000,  0.0000)
  38 Cu    10.803455    1.782191   21.124150    ( 0.0000,  0.0000,  0.0000)
  39 Cu     0.870525   -0.073156   20.554657    ( 0.0000,  0.0000,  0.0000)
  40 Cu     3.222345   -0.071980   21.700825    ( 0.0000,  0.0000,  0.0000)
  41 Cu     1.496824    1.777314   22.269749    ( 0.0000,  0.0000,  0.0000)
  42 Cu     7.316660    1.779179   22.346538    ( 0.0000,  0.0000,  0.0000)
  43 Cu     9.073711   -0.071672   21.716447    ( 0.0000,  0.0000,  0.0000)
  44 Cu    11.405952   -0.069248   22.888084    ( 0.0000,  0.0000,  0.0000)
  45 Cu     9.611122    1.812577   23.488890    ( 0.0000,  0.0000,  0.0000)
  46 Cu     3.824276    1.760534   23.354045    ( 0.0000,  0.0000,  0.0000)
  47 Cu     5.572368   -0.080172   22.873803    ( 0.0000,  0.0000,  0.0000)
  48 Cu     3.135961    3.606338   10.104481    ( 0.0000,  0.0000,  0.0000)
  49 Cu     1.400119    5.480893   10.569105    ( 0.0000,  0.0000,  0.0000)
  50 Cu     7.240051    5.468030   10.584299    ( 0.0000,  0.0000,  0.0000)
  51 Cu     9.056838    3.663870    9.967512    ( 0.0000,  0.0000,  0.0000)
  52 Cu    11.345993    3.630341   11.118717    ( 0.0000,  0.0000,  0.0000)
  53 Cu     9.590130    5.476279   11.754124    ( 0.0000,  0.0000,  0.0000)
  54 Cu     3.733635    5.478011   11.746732    ( 0.0000,  0.0000,  0.0000)
  55 Cu     5.461570    3.622310   11.190630    ( 0.0000,  0.0000,  0.0000)
  56 Cu     7.858064    3.630607   12.333484    ( 0.0000,  0.0000,  0.0000)
  57 Cu     6.082563    5.479257   12.911984    ( 0.0000,  0.0000,  0.0000)
  58 Cu     0.236359    5.476531   12.907956    ( 0.0000,  0.0000,  0.0000)
  59 Cu     1.956196    3.634802   12.301836    ( 0.0000,  0.0000,  0.0000)
  60 Cu     4.337857    3.631214   13.507644    ( 0.0000,  0.0000,  0.0000)
  61 Cu     2.582642    5.475914   14.102608    ( 0.0000,  0.0000,  0.0000)
  62 Cu     8.429256    5.488040   14.101981    ( 0.0000,  0.0000,  0.0000)
  63 Cu    10.199774    3.628836   13.480994    ( 0.0000,  0.0000,  0.0000)
  64 Cu     0.840640    3.628785   14.674970    ( 0.0000,  0.0000,  0.0000)
  65 Cu    10.785308    5.475190   15.260960    ( 0.0000,  0.0000,  0.0000)
  66 Cu     4.936173    5.486120   15.268754    ( 0.0000,  0.0000,  0.0000)
  67 Cu     6.688215    3.629433   14.675233    ( 0.0000,  0.0000,  0.0000)
  68 Cu     9.038630    3.630263   15.837822    ( 0.0000,  0.0000,  0.0000)
  69 Cu     7.280333    5.477629   16.445053    ( 0.0000,  0.0000,  0.0000)
  70 Cu     1.426169    5.482524   16.440039    ( 0.0000,  0.0000,  0.0000)
  71 Cu     3.185201    3.632051   15.845062    ( 0.0000,  0.0000,  0.0000)
  72 Cu     5.527755    3.631334   17.015566    ( 0.0000,  0.0000,  0.0000)
  73 Cu     3.770409    5.482978   17.623276    ( 0.0000,  0.0000,  0.0000)
  74 Cu     9.624138    5.480694   17.611837    ( 0.0000,  0.0000,  0.0000)
  75 Cu    11.384217    3.628893   17.017107    ( 0.0000,  0.0000,  0.0000)
  76 Cu     2.025019    3.636722   18.193336    ( 0.0000,  0.0000,  0.0000)
  77 Cu     0.266294    5.482714   18.784069    ( 0.0000,  0.0000,  0.0000)
  78 Cu     6.120461    5.478649   18.783431    ( 0.0000,  0.0000,  0.0000)
  79 Cu     7.872453    3.624849   18.194910    ( 0.0000,  0.0000,  0.0000)
  80 Cu    10.229580    3.639857   19.352628    ( 0.0000,  0.0000,  0.0000)
  81 Cu     8.470253    5.481689   19.950853    ( 0.0000,  0.0000,  0.0000)
  82 Cu     2.609485    5.481215   19.980703    ( 0.0000,  0.0000,  0.0000)
  83 Cu     4.377364    3.625358   19.361014    ( 0.0000,  0.0000,  0.0000)
  84 Cu     6.722320    3.627844   20.554657    ( 0.0000,  0.0000,  0.0000)
  85 Cu     4.951660    5.483191   21.124150    ( 0.0000,  0.0000,  0.0000)
  86 Cu    10.855213    5.483650   21.157164    ( 0.0000,  0.0000,  0.0000)
  87 Cu     0.875331    3.630867   20.545104    ( 0.0000,  0.0000,  0.0000)
  88 Cu     3.221916    3.629328   21.716447    ( 0.0000,  0.0000,  0.0000)
  89 Cu     1.464865    5.480179   22.346538    ( 0.0000,  0.0000,  0.0000)
  90 Cu     7.348619    5.478314   22.269749    ( 0.0000,  0.0000,  0.0000)
  91 Cu     9.074140    3.629020   21.700825    ( 0.0000,  0.0000,  0.0000)
  92 Cu    11.424163    3.620828   22.873803    ( 0.0000,  0.0000,  0.0000)
  93 Cu     9.676071    5.461534   23.354045    ( 0.0000,  0.0000,  0.0000)
  94 Cu     3.759328    5.513577   23.488890    ( 0.0000,  0.0000,  0.0000)
  95 Cu     5.554157    3.631752   22.888084    ( 0.0000,  0.0000,  0.0000)
  96 Cl     4.379254    3.635288   24.443673    ( 0.0000,  0.0000,  0.0000)
  97 Cl    10.237119    3.631646   24.438913    ( 0.0000,  0.0000,  0.0000)
  98 Cl     4.379254   -0.052879   24.147989    ( 0.0000,  0.0000,  0.0000)
  99 Cl    10.237119   -0.056520   24.143228    ( 0.0000,  0.0000,  0.0000)
 100 Cl     2.576420    1.778746    9.018764    ( 0.0000,  0.0000,  0.0000)
 101 Cl     8.432169    1.783034    9.013699    ( 0.0000,  0.0000,  0.0000)
 102 Cl     2.627314    5.678409    9.012788    ( 0.0000,  0.0000,  0.0000)
 103 Cl     8.483063    5.682697    9.007723    ( 0.0000,  0.0000,  0.0000)

Unit cell:
           periodic     x           y           z      points  spacing
  1. axis:    yes   11.703590    0.000000    0.000000    70     0.1672
  2. axis:    yes    0.000000    7.402000    0.000000    42     0.1762
  3. axis:    no     0.000000    0.000000   33.459128   192     0.1743

  Lengths:  11.703590   7.402000  33.459128
  Angles:   90.000000  90.000000  90.000000

Effective grid spacing dv^(1/3) = 0.1725

     iter     time        total  log10-change:
                         energy  eigst   dens
iter:   1 01:16:24 -7854.724202
iter:   2 01:20:14 -8115.103755  +1.03  -0.95
iter:   3 01:24:37 -7645.603029  +0.18  -0.85
iter:   4 01:29:05 -7876.628898  -0.65  -1.25
iter:   5 01:33:19 -7673.447838  -2.03  -1.01
iter:   6 01:37:14 -7594.038861  -1.51  -1.22
iter:   7 01:41:38 -7592.923168  -1.53  -1.41
iter:   8 01:46:09 -7589.544147  -1.03  -1.50
iter:   9 01:50:38 -7560.943642  -1.96  -1.52
iter:  10 01:55:12 -7556.091073  -2.39  -1.70
iter:  11 01:59:37 -7562.256460  -1.39  -1.74
iter:  12 02:04:02 -7555.342787  -1.99  -1.75
iter:  13 02:08:08 -7554.412560  -1.99  -1.86
iter:  14 02:12:27 -7553.212545  -2.23  -1.98
iter:  15 02:17:04 -7552.603120  -2.07  -2.10
iter:  16 02:21:59 -7552.096963  -3.26  -2.55
iter:  17 02:26:29 -7551.925482  -3.50  -2.65
iter:  18 02:30:51 -7551.835018c -3.48  -2.73
iter:  19 02:35:11 -7551.844245c -3.85  -2.85
iter:  20 02:39:13 -7551.825418c -3.54  -2.90
iter:  21 02:43:33 -7551.794868c -4.55  -3.02
iter:  22 02:47:41 -7551.790475c -4.66  -3.21
iter:  23 02:52:07 -7551.788068c -5.05  -3.29
iter:  24 02:56:33 -7551.784502c -4.65  -3.33
iter:  25 03:00:59 -7551.784712c -5.27  -3.44
iter:  26 03:05:43 -7551.783785c -5.51  -3.54
iter:  27 03:09:56 -7551.782625c -5.57  -3.75
iter:  28 03:14:19 -7551.782489c -5.41  -3.86
iter:  29 03:18:31 -7551.782330c -6.16  -3.94
iter:  30 03:23:08 -7551.782157c -6.25  -3.97
iter:  31 03:27:23 -7551.782168c -6.71  -4.17c
iter:  32 03:31:43 -7551.782055c -6.49  -4.27c
iter:  33 03:36:19 -7551.782052c -7.40c -4.57c

Converged after 33 iterations.

Dipole moment: (23.384623, 66.018106, 0.210907) |e|*Ang

Energy contributions relative to reference atoms: (reference = -4422498.971913)

Kinetic:       +937.272676
Potential:     -967.900833
External:        +0.000000
XC:            -7519.586267
Entropy (-ST):   -0.953604
Local:           -1.090827
--------------------------
Free energy:   -7552.258854
Extrapolated:  -7551.782052

Showing only first 2 kpts
 Kpt  Band  Eigenvalues  Occupancy
  0   554      0.87787    1.01186
  0   555      0.93291    0.74258
  0   556      1.06028    0.28361
  0   557      1.13664    0.14298

  1   554      0.58294    1.90268
  1   555      0.67263    1.77711
  1   556      0.71145    1.68789
  1   557      0.74224    1.59799


Fermi level: 0.88024

No gap

Forces in eV/Ang:
  0 Cu    1.51408    1.12977    2.34328
  1 Cu   -3.07076   -0.06467    3.53543
  2 Cu   -3.18373    0.18250    3.73778
  3 Cu    1.39275    1.76068    1.87173
  4 Cu    0.20964    0.03761    0.22413
  5 Cu    0.35797    0.08232    0.26977
  6 Cu    0.35226   -0.07881    0.34416
  7 Cu    0.01028    0.01522    0.40639
  8 Cu    0.01761   -0.01369    0.52329
  9 Cu    0.11935    0.01169   -0.17310
 10 Cu    0.12591   -0.01172   -0.19005
 11 Cu   -0.11469   -0.00562    0.13838
 12 Cu   -0.11843   -0.00517    0.05106
 13 Cu    0.03413   -0.02187   -0.05528
 14 Cu    0.01907    0.01306   -0.06002
 15 Cu   -0.16255   -0.00885   -0.01097
 16 Cu   -0.03273   -0.00535    0.06729
 17 Cu    0.00764   -0.01393   -0.13128
 18 Cu    0.02036    0.01066   -0.11343
 19 Cu   -0.05003    0.00149    0.07384
 20 Cu   -0.03003    0.00094    0.06198
 21 Cu    0.03777   -0.00352   -0.01910
 22 Cu    0.03769    0.00765   -0.03046
 23 Cu   -0.03707   -0.00139    0.05687
 24 Cu   -0.04226    0.00794    0.03256
 25 Cu    0.03167    0.00465   -0.06104
 26 Cu    0.03685    0.00133   -0.06377
 27 Cu   -0.03905   -0.00724    0.03671
 28 Cu   -0.00150    0.00955    0.10376
 29 Cu    0.03293    0.00714   -0.06110
 30 Cu    0.04631   -0.00373   -0.07183
 31 Cu   -0.01940   -0.01657    0.10419
 32 Cu   -0.03117    0.00911    0.06355
 33 Cu    0.12606   -0.00871   -0.06215
 34 Cu    0.17715   -0.00614    0.00477
 35 Cu   -0.02060   -0.02507    0.09474
 36 Cu   -0.09376   -0.00922    0.17772
 37 Cu   -0.01383    0.04548   -0.59125
 38 Cu    0.12323    0.04050   -0.20577
 39 Cu   -0.08476    0.01536    0.15230
 40 Cu   -0.52902   -0.07547   -0.56431
 41 Cu   -0.19136    0.03401   -0.23765
 42 Cu    0.01597    0.04661   -0.42920
 43 Cu   -0.53736    0.09143   -0.54173
 44 Cu   10.43045    0.03000  -10.66234
 45 Cu   -1.34899    0.78885   -1.60925
 46 Cu   -1.36027    1.67091   -1.24966
 47 Cu    9.16089   -0.29744   -9.25890
 48 Cu    0.68308    0.69098    0.52094
 49 Cu   -2.69299   -0.27816    3.01356
 50 Cu   -2.44270   -0.47835    2.65445
 51 Cu    0.55187    0.33896    0.95403
 52 Cu    0.01096    0.02521    0.34979
 53 Cu    0.33542   -0.11551    0.33010
 54 Cu    0.35104    0.04568    0.26414
 55 Cu    0.21587    0.04507    0.16624
 56 Cu   -0.10787    0.00115    0.06497
 57 Cu    0.12498   -0.00221   -0.18906
 58 Cu    0.11952    0.02111   -0.17092
 59 Cu    0.02384   -0.00794    0.45359
 60 Cu   -0.16485   -0.00741    0.00691
 61 Cu    0.02046    0.01764   -0.05946
 62 Cu    0.03500   -0.01717   -0.05223
 63 Cu   -0.12072   -0.00303    0.06767
 64 Cu   -0.04988    0.00267    0.06431
 65 Cu    0.02063    0.01071   -0.11475
 66 Cu    0.00937   -0.01481   -0.13078
 67 Cu   -0.03276   -0.00435    0.05781
 68 Cu   -0.04047   -0.00269    0.04358
 69 Cu    0.03782    0.00703   -0.03046
 70 Cu    0.03825   -0.00476   -0.01993
 71 Cu   -0.03347    0.00034    0.04816
 72 Cu   -0.04051   -0.00760    0.03598
 73 Cu    0.03737   -0.00343   -0.06510
 74 Cu    0.03222   -0.00128   -0.06160
 75 Cu   -0.04405    0.00804    0.03125
 76 Cu   -0.02233   -0.01672    0.12966
 77 Cu    0.04650   -0.00119   -0.07203
 78 Cu    0.03236    0.00735   -0.06094
 79 Cu   -0.00512    0.00949    0.12742
 80 Cu   -0.02405   -0.02617    0.07614
 81 Cu    0.17734    0.00172    0.00390
 82 Cu    0.12664   -0.00015   -0.06321
 83 Cu   -0.03403    0.00940    0.04520
 84 Cu   -0.12592    0.01381    0.17974
 85 Cu    0.12256   -0.07487   -0.19353
 86 Cu   -0.01479   -0.07769   -0.58899
 87 Cu   -0.13432   -0.00748    0.20231
 88 Cu   -0.37028    0.08708   -0.31596
 89 Cu    0.01713   -0.03227   -0.42901
 90 Cu   -0.19404   -0.03563   -0.22859
 91 Cu   -0.36680   -0.05986   -0.33356
 92 Cu    3.10228   -0.10912   -3.58069
 93 Cu   -1.21546   -0.77060   -1.06372
 94 Cu   -1.33608   -1.62718   -1.57076
 95 Cu    3.28098    0.13206   -3.83928
 96 Cl   -2.08901   -0.16453    5.44559
 97 Cl   -1.70917    0.37990    5.50771
 98 Cl   -6.81415    0.29088   12.42745
 99 Cl   -8.42484   -0.31061   13.37476
100 Cl    1.67271    0.68509   -5.49517
101 Cl    2.05502    0.10104   -5.34828
102 Cl    1.15934   -2.17090   -5.31100
103 Cl    0.90666   -1.91497   -5.24796

System changes: positions 

Initializing position-dependent things.

Density initialized from wave functions
      .----------------------------.  
     /|                            |  
    / |                            |  
   /  |                            |  
  /   |                            |  
 *    |                            |  
 |    |                            |  
 |    |                            |  
 |    |                            |  
 |    |                            |  
 |    |                            |  
 |    |          Cl            Cl  |  
 |    |                            |  
 |    |             Cu             Cu 
 |    |       Cl            CCl    |  
 |    | Cu             Cu          |  
 |    | Cu  Cu   Cu    Cu Cu    Cu |  
 |    |    Cu    Cu Cu    Cu   Cu  |  
 |    Cu   Cu       Cu    Cu       |  
 |   Cu    Cu  Cu   Cu   Cu  Cu    |  
 |    |  Cu   Cu    Cu Cu    Cu   Cu  
 |    | Cu    Cu       Cu    Cu    |  
 | Cu | Cu    Cu Cu    Cu   Cu     |  
 |    | Cu  Cu   Cu    Cu Cu    Cu |  
 |    |    Cu    Cu       Cu   Cu  |  
 |    Cu   Cu    Cu Cu    Cu       |  
 |   CCu   Cu Cu    Cu   Cu  Cu    |  
 |    |       Cu    Cu       Cu   Cu  
 |    | CCu   Cu       Cu   Cu     |  
 | Cu | Cu    Cu Cu    Cu   Cu     |  
 |    |    Cu    Cu       Cu    Cu |  
 |    |    Cu             Cu       |  
 |    Cu            Cu             |  
 |    |                            |  
 |    |  Cl            Cl          |  
 |    |                            |  
 |    |                            |  
 |    |                            |  
 |    |                            |  
 |    |                            |  
 |    |                            |  
 |    .----------------------------.  
 |   /                            /   
 |  /                            /    
 | /                            /     
 |/                            /      
 *----------------------------*       

Positions:
   0 Cu     3.224196   -0.022838    9.997155    ( 0.0000,  0.0000,  0.0000)
   1 Cu     1.349410    1.766212   10.629023    ( 0.0000,  0.0000,  0.0000)
   2 Cu     7.211639    1.782202   10.616389    ( 0.0000,  0.0000,  0.0000)
   3 Cu     9.005375   -0.072389   10.128159    ( 0.0000,  0.0000,  0.0000)
   4 Cu    11.316017   -0.078214   11.193465    ( 0.0000,  0.0000,  0.0000)
   5 Cu     9.589958    1.778052   11.750145    ( 0.0000,  0.0000,  0.0000)
   6 Cu     3.742791    1.774282   11.758478    ( 0.0000,  0.0000,  0.0000)
   7 Cu     5.494328   -0.070465   11.123858    ( 0.0000,  0.0000,  0.0000)
   8 Cu     7.808214   -0.066371   12.308456    ( 0.0000,  0.0000,  0.0000)
   9 Cu     6.089664    1.775679   12.905766    ( 0.0000,  0.0000,  0.0000)
  10 Cu     0.232361    1.778109   12.909580    ( 0.0000,  0.0000,  0.0000)
  11 Cu     2.004818   -0.070464   12.335235    ( 0.0000,  0.0000,  0.0000)
  12 Cu     4.346481   -0.072229   13.481640    ( 0.0000,  0.0000,  0.0000)
  13 Cu     2.577893    1.786763   14.101282    ( 0.0000,  0.0000,  0.0000)
  14 Cu     8.434678    1.775079   14.101849    ( 0.0000,  0.0000,  0.0000)
  15 Cu    10.187596   -0.069898   13.507505    ( 0.0000,  0.0000,  0.0000)
  16 Cu     0.836006   -0.071635   14.676084    ( 0.0000,  0.0000,  0.0000)
  17 Cu    10.788065    1.784944   15.267093    ( 0.0000,  0.0000,  0.0000)
  18 Cu     4.933770    1.774325   15.259525    ( 0.0000,  0.0000,  0.0000)
  19 Cu     6.691802   -0.072196   14.675904    ( 0.0000,  0.0000,  0.0000)
  20 Cu     9.036616   -0.068937   15.845846    ( 0.0000,  0.0000,  0.0000)
  21 Cu     7.278442    1.781479   16.439797    ( 0.0000,  0.0000,  0.0000)
  22 Cu     1.429015    1.776726   16.444668    ( 0.0000,  0.0000,  0.0000)
  23 Cu     3.186366   -0.070755   15.838541    ( 0.0000,  0.0000,  0.0000)
  24 Cu     5.531887   -0.072007   17.017519    ( 0.0000,  0.0000,  0.0000)
  25 Cu     3.772744    1.779753   17.611065    ( 0.0000,  0.0000,  0.0000)
  26 Cu     9.622670    1.781996   17.622469    ( 0.0000,  0.0000,  0.0000)
  27 Cu    11.379056   -0.069758   17.016031    ( 0.0000,  0.0000,  0.0000)
  28 Cu     2.020639   -0.076030   18.196223    ( 0.0000,  0.0000,  0.0000)
  29 Cu     0.269083    1.777739   18.782658    ( 0.0000,  0.0000,  0.0000)
  30 Cu     6.118675    1.781667   18.783160    ( 0.0000,  0.0000,  0.0000)
  31 Cu     7.876569   -0.064488   18.194654    ( 0.0000,  0.0000,  0.0000)
  32 Cu    10.228765   -0.075527   19.361818    ( 0.0000,  0.0000,  0.0000)
  33 Cu     8.462875    1.780105   19.979917    ( 0.0000,  0.0000,  0.0000)
  34 Cu     2.620699    1.780611   19.950913    ( 0.0000,  0.0000,  0.0000)
  35 Cu     4.377524   -0.061460   19.353826    ( 0.0000,  0.0000,  0.0000)
  36 Cu     6.725940   -0.070250   20.547352    ( 0.0000,  0.0000,  0.0000)
  37 Cu     5.003243    1.783225   21.149685    ( 0.0000,  0.0000,  0.0000)
  38 Cu    10.805014    1.782703   21.121547    ( 0.0000,  0.0000,  0.0000)
  39 Cu     0.869453   -0.072962   20.556584    ( 0.0000,  0.0000,  0.0000)
  40 Cu     3.215653   -0.072935   21.693686    ( 0.0000,  0.0000,  0.0000)
  41 Cu     1.494403    1.777744   22.266743    ( 0.0000,  0.0000,  0.0000)
  42 Cu     7.316862    1.779769   22.341109    ( 0.0000,  0.0000,  0.0000)
  43 Cu     9.066913   -0.070515   21.709594    ( 0.0000,  0.0000,  0.0000)
  44 Cu    11.537899   -0.068868   22.753204    ( 0.0000,  0.0000,  0.0000)
  45 Cu     9.594057    1.822556   23.468533    ( 0.0000,  0.0000,  0.0000)
  46 Cu     3.807068    1.781671   23.338237    ( 0.0000,  0.0000,  0.0000)
  47 Cu     5.688255   -0.083935   22.756676    ( 0.0000,  0.0000,  0.0000)
  48 Cu     3.144602    3.615079   10.111071    ( 0.0000,  0.0000,  0.0000)
  49 Cu     1.366052    5.477374   10.607227    ( 0.0000,  0.0000,  0.0000)
  50 Cu     7.209150    5.461979   10.617878    ( 0.0000,  0.0000,  0.0000)
  51 Cu     9.063819    3.668158    9.979581    ( 0.0000,  0.0000,  0.0000)
  52 Cu    11.346132    3.630660   11.123142    ( 0.0000,  0.0000,  0.0000)
  53 Cu     9.594373    5.474818   11.758300    ( 0.0000,  0.0000,  0.0000)
  54 Cu     3.738076    5.478589   11.750073    ( 0.0000,  0.0000,  0.0000)
  55 Cu     5.464301    3.622880   11.192733    ( 0.0000,  0.0000,  0.0000)
  56 Cu     7.856699    3.630622   12.334306    ( 0.0000,  0.0000,  0.0000)
  57 Cu     6.084144    5.479229   12.909592    ( 0.0000,  0.0000,  0.0000)
  58 Cu     0.237871    5.476798   12.905794    ( 0.0000,  0.0000,  0.0000)
  59 Cu     1.956498    3.634702   12.307574    ( 0.0000,  0.0000,  0.0000)
  60 Cu     4.335772    3.631120   13.507731    ( 0.0000,  0.0000,  0.0000)
  61 Cu     2.582901    5.476137   14.101856    ( 0.0000,  0.0000,  0.0000)
  62 Cu     8.429699    5.487823   14.101320    ( 0.0000,  0.0000,  0.0000)
  63 Cu    10.198247    3.628798   13.481850    ( 0.0000,  0.0000,  0.0000)
  64 Cu     0.840009    3.628819   14.675784    ( 0.0000,  0.0000,  0.0000)
  65 Cu    10.785569    5.475326   15.259508    ( 0.0000,  0.0000,  0.0000)
  66 Cu     4.936292    5.485933   15.267100    ( 0.0000,  0.0000,  0.0000)
  67 Cu     6.687801    3.629378   14.675964    ( 0.0000,  0.0000,  0.0000)
  68 Cu     9.038118    3.630229   15.838373    ( 0.0000,  0.0000,  0.0000)
  69 Cu     7.280811    5.477718   16.444668    ( 0.0000,  0.0000,  0.0000)
  70 Cu     1.426653    5.482464   16.439787    ( 0.0000,  0.0000,  0.0000)
  71 Cu     3.184778    3.632055   15.845671    ( 0.0000,  0.0000,  0.0000)
  72 Cu     5.527243    3.631238   17.016021    ( 0.0000,  0.0000,  0.0000)
  73 Cu     3.770882    5.482935   17.622452    ( 0.0000,  0.0000,  0.0000)
  74 Cu     9.624546    5.480678   17.611058    ( 0.0000,  0.0000,  0.0000)
  75 Cu    11.383660    3.628995   17.017502    ( 0.0000,  0.0000,  0.0000)
  76 Cu     2.024737    3.636511   18.194976    ( 0.0000,  0.0000,  0.0000)
  77 Cu     0.266882    5.482699   18.783158    ( 0.0000,  0.0000,  0.0000)
  78 Cu     6.120870    5.478742   18.782660    ( 0.0000,  0.0000,  0.0000)
  79 Cu     7.872388    3.624969   18.196522    ( 0.0000,  0.0000,  0.0000)
  80 Cu    10.229276    3.639526   19.353591    ( 0.0000,  0.0000,  0.0000)
  81 Cu     8.472496    5.481711   19.950902    ( 0.0000,  0.0000,  0.0000)
  82 Cu     2.611087    5.481213   19.979903    ( 0.0000,  0.0000,  0.0000)
  83 Cu     4.376933    3.625477   19.361586    ( 0.0000,  0.0000,  0.0000)
  84 Cu     6.720727    3.628019   20.556931    ( 0.0000,  0.0000,  0.0000)
  85 Cu     4.953210    5.482244   21.121702    ( 0.0000,  0.0000,  0.0000)
  86 Cu    10.855026    5.482667   21.149713    ( 0.0000,  0.0000,  0.0000)
  87 Cu     0.873632    3.630772   20.547663    ( 0.0000,  0.0000,  0.0000)
  88 Cu     3.217232    3.630430   21.712450    ( 0.0000,  0.0000,  0.0000)
  89 Cu     1.465082    5.479771   22.341111    ( 0.0000,  0.0000,  0.0000)
  90 Cu     7.346164    5.477863   22.266857    ( 0.0000,  0.0000,  0.0000)
  91 Cu     9.069500    3.628263   21.696605    ( 0.0000,  0.0000,  0.0000)
  92 Cu    11.463407    3.619448   22.828507    ( 0.0000,  0.0000,  0.0000)
  93 Cu     9.660695    5.451786   23.340589    ( 0.0000,  0.0000,  0.0000)
  94 Cu     3.742426    5.492993   23.469020    ( 0.0000,  0.0000,  0.0000)
  95 Cu     5.595662    3.633423   22.839516    ( 0.0000,  0.0000,  0.0000)
  96 Cl     4.352827    3.633206   24.512561    ( 0.0000,  0.0000,  0.0000)
  97 Cl    10.215497    3.636452   24.508586    ( 0.0000,  0.0000,  0.0000)
  98 Cl     4.293054   -0.049199   24.305198    ( 0.0000,  0.0000,  0.0000)
  99 Cl    10.130543   -0.060449   24.312421    ( 0.0000,  0.0000,  0.0000)
 100 Cl     2.597580    1.787413    8.949249    ( 0.0000,  0.0000,  0.0000)
 101 Cl     8.458166    1.784312    8.946043    ( 0.0000,  0.0000,  0.0000)
 102 Cl     2.641979    5.650947    8.945603    ( 0.0000,  0.0000,  0.0000)
 103 Cl     8.494532    5.658472    8.941336    ( 0.0000,  0.0000,  0.0000)

Unit cell:
           periodic     x           y           z      points  spacing
  1. axis:    yes   11.703590    0.000000    0.000000    70     0.1672
  2. axis:    yes    0.000000    7.402000    0.000000    42     0.1762
  3. axis:    no     0.000000    0.000000   33.459128   192     0.1743

  Lengths:  11.703590   7.402000  33.459128
  Angles:   90.000000  90.000000  90.000000

Effective grid spacing dv^(1/3) = 0.1725

     iter     time        total  log10-change:
                         energy  eigst   dens
iter:   1 03:43:03 -7580.200260  -0.86
iter:   2 03:47:17 -7573.412698  -1.51  -1.75
iter:   3 03:51:18 -7577.622861  -1.76  -1.81
iter:   4 03:55:21 -7562.564439  -2.26  -1.78
iter:   5 03:59:23 -7562.269631  -2.35  -2.22
iter:   6 04:03:28 -7561.008620  -2.79  -2.27
iter:   7 04:07:26 -7561.122195  -2.71  -2.59
iter:   8 04:11:27 -7560.785459c -3.46  -2.52
iter:   9 04:15:36 -7560.700380c -4.04  -2.83
iter:  10 04:19:56 -7560.682876c -3.88  -3.11
iter:  11 04:24:12 -7560.675264c -4.41  -3.20
iter:  12 04:28:20 -7560.670493c -4.93  -3.35
iter:  13 04:32:21 -7560.665991c -4.65  -3.46
iter:  14 04:36:36 -7560.665301c -4.93  -3.58
iter:  15 04:40:33 -7560.663894c -5.49  -3.71
iter:  16 04:44:29 -7560.663082c -5.77  -3.82
iter:  17 04:48:42 -7560.662559c -5.92  -4.02c
iter:  18 04:53:07 -7560.662366c -5.97  -4.18c
iter:  19 04:57:16 -7560.662399c -6.51  -4.26c
iter:  20 05:01:11 -7560.662392c -6.92  -4.36c
iter:  21 05:05:05 -7560.662428c -7.04  -4.46c
iter:  22 05:09:13 -7560.662415c -6.60  -4.52c
iter:  23 05:13:16 -7560.662407c -7.37  -4.68c
iter:  24 05:17:31 -7560.662409c -8.05c -4.81c

Converged after 24 iterations.

Dipole moment: (18.836690, 64.887964, 0.144005) |e|*Ang

Energy contributions relative to reference atoms: (reference = -4422498.971913)

Kinetic:       +854.260488
Potential:     -904.044874
External:        +0.000000
XC:            -7509.365206
Entropy (-ST):   -0.951261
Local:           -1.037186
--------------------------
Free energy:   -7561.138039
Extrapolated:  -7560.662409

Showing only first 2 kpts
 Kpt  Band  Eigenvalues  Occupancy
  0   554      0.74082    0.98584
  0   555      0.77607    0.81187
  0   556      0.91956    0.27990
  0   557      0.98440    0.15683

  1   554      0.45478    1.88877
  1   555      0.54010    1.75713
  1   556      0.56677    1.69424
  1   557      0.59256    1.62131


Fermi level: 0.73799

No gap

Forces in eV/Ang:
  0 Cu    0.89688    0.43730    1.64177
  1 Cu   -1.50569   -0.05373    1.64827
  2 Cu   -1.53547    0.16879    1.70844
  3 Cu    0.85974    0.84278    1.09302
  4 Cu    0.18959    0.01778    0.21192
  5 Cu    0.29303    0.12127    0.22188
  6 Cu    0.27705   -0.03546    0.26991
  7 Cu    0.01610   -0.00625    0.39053
  8 Cu    0.03758   -0.03351    0.48527
  9 Cu    0.06625    0.01532   -0.05056
 10 Cu    0.07052   -0.00683   -0.06393
 11 Cu   -0.08377   -0.01803    0.12359
 12 Cu   -0.10827   -0.00668    0.06267
 13 Cu    0.02829   -0.02181   -0.03633
 14 Cu    0.01473    0.01642   -0.04218
 15 Cu   -0.14795   -0.00848   -0.00075
 16 Cu   -0.02954   -0.00377    0.06025
 17 Cu    0.00708   -0.01463   -0.12340
 18 Cu    0.01877    0.01023   -0.10763
 19 Cu   -0.04668    0.00181    0.06966
 20 Cu   -0.02915    0.00066    0.05146
 21 Cu    0.03321   -0.00312   -0.01746
 22 Cu    0.03261    0.00742   -0.02765
 23 Cu   -0.03501   -0.00205    0.04838
 24 Cu   -0.03665    0.00718    0.02551
 25 Cu    0.02964    0.00124   -0.05214
 26 Cu    0.03424   -0.00153   -0.05522
 27 Cu   -0.03320   -0.00647    0.02838
 28 Cu   -0.00478    0.01037    0.10480
 29 Cu    0.03300    0.00734   -0.06110
 30 Cu    0.04668   -0.00316   -0.07359
 31 Cu   -0.02112   -0.01611    0.10540
 32 Cu   -0.02728    0.01158    0.03565
 33 Cu    0.11708   -0.00061   -0.07711
 34 Cu    0.16328    0.00297   -0.00959
 35 Cu   -0.01702   -0.02679    0.06514
 36 Cu    0.05156   -0.00659   -0.18038
 37 Cu   -0.07606    0.03717   -0.52341
 38 Cu    0.05542    0.04010   -0.16503
 39 Cu    0.08571    0.01400   -0.25456
 40 Cu   -0.29780   -0.06319   -0.32190
 41 Cu   -0.09923    0.11610   -0.24270
 42 Cu    0.07933    0.12861   -0.42970
 43 Cu   -0.29110    0.08223   -0.30981
 44 Cu    1.21689    0.12532   -1.09222
 45 Cu   -0.74290    0.35464   -1.38142
 46 Cu   -0.75878    0.81257   -0.93051
 47 Cu    1.39739   -0.10971   -1.31057
 48 Cu    0.48457    0.46370    0.36141
 49 Cu   -1.41999   -0.03354    1.54027
 50 Cu   -1.33071   -0.22744    1.40444
 51 Cu    0.36615    0.18024    0.80262
 52 Cu   -0.02595    0.01914    0.34002
 53 Cu    0.26103   -0.08391    0.24297
 54 Cu    0.28021    0.06227    0.19276
 55 Cu    0.16155    0.03997    0.16213
 56 Cu   -0.07063   -0.00098    0.07111
 57 Cu    0.08143   -0.00250   -0.08759
 58 Cu    0.07506    0.01957   -0.06855
 59 Cu    0.06115   -0.01449    0.42386
 60 Cu   -0.14865   -0.00625    0.01124
 61 Cu    0.01531    0.01725   -0.04209
 62 Cu    0.02873   -0.02083   -0.03428
 63 Cu   -0.10945   -0.00413    0.07448
 64 Cu   -0.04574    0.00277    0.06090
 65 Cu    0.01897    0.01148   -0.10764
 66 Cu    0.00835   -0.01390   -0.12320
 67 Cu   -0.02867   -0.00279    0.05143
 68 Cu   -0.03653   -0.00292    0.04196
 69 Cu    0.03291    0.00669   -0.02727
 70 Cu    0.03369   -0.00408   -0.01774
 71 Cu   -0.03048   -0.00001    0.04551
 72 Cu   -0.03338   -0.00678    0.02500
 73 Cu    0.03448   -0.00155   -0.05675
 74 Cu    0.02996    0.00097   -0.05247
 75 Cu   -0.03730    0.00720    0.02141
 76 Cu   -0.02206   -0.01628    0.12119
 77 Cu    0.04657   -0.00217   -0.07369
 78 Cu    0.03254    0.00636   -0.06056
 79 Cu   -0.00569    0.00993    0.11908
 80 Cu   -0.01700   -0.02727    0.04805
 81 Cu    0.16258   -0.00577   -0.00978
 82 Cu    0.11790   -0.00962   -0.07881
 83 Cu   -0.02661    0.01176    0.01921
 84 Cu   -0.06051    0.01380    0.04082
 85 Cu    0.05633   -0.07230   -0.16131
 86 Cu   -0.08674   -0.08672   -0.52493
 87 Cu   -0.06900   -0.00695    0.06056
 88 Cu   -0.29177    0.09585   -0.27495
 89 Cu    0.09801   -0.13125   -0.42816
 90 Cu   -0.09957   -0.11969   -0.23759
 91 Cu   -0.28330   -0.06234   -0.27232
 92 Cu    1.50946   -0.09673   -1.66431
 93 Cu   -0.68280   -0.27618   -0.81776
 94 Cu   -0.72513   -0.84986   -1.34369
 95 Cu    1.57382    0.13159   -1.73962
 96 Cl   -0.72390   -0.14484    3.23673
 97 Cl   -0.54630    0.26986    3.39104
 98 Cl   -0.44645    0.15099    4.18723
 99 Cl   -0.49398   -0.33244    3.71080
100 Cl    0.55594    0.51578   -3.36180
101 Cl    0.76556    0.10299   -3.14914
102 Cl    0.45453   -1.35954   -3.27077
103 Cl    0.35798   -1.10689   -3.30009

System changes: positions 

Initializing position-dependent things.

Density initialized from wave functions
      .----------------------------.  
     /|                            |  
    / |                            |  
   /  |                            |  
  /   |                            |  
 *    |                            |  
 |    |                            |  
 |    |                            |  
 |    |                            |  
 |    |                            |  
 |    |                            |  
 |    |          Cl            Cl  |  
 |    |                            |  
 |    |       Cl    Cu       Cl   Cu  
 |    |       Cu            CCu    |  
 |    | Cu             Cu          |  
 |    | Cu  Cu   CCu   Cu Cu    Cu |  
 |    |    Cu    Cu Cu    Cu   Cu  |  
 |    Cu   Cu       Cu    Cu       |  
 |   Cu    Cu  Cu   Cu   Cu  Cu    |  
 |    |  Cu   Cu    Cu Cu    Cu   Cu  
 |    | Cu    Cu       Cu    Cu    |  
 | Cu | Cu    Cu Cu    Cu   Cu     |  
 |    | Cu  Cu   Cu    Cu Cu    Cu |  
 |    |    Cu    Cu       Cu   Cu  |  
 |    Cu   Cu    Cu Cu    Cu       |  
 |   CCu   Cu Cu    Cu   Cu  Cu    |  
 |    |       Cu    Cu       Cu   Cu  
 |    | CCu   Cu       Cu    Cu    |  
 | Cu | Cu    Cu Cu   Cu    Cu     |  
 |    |     Cu   Cu       Cu    Cu |  
 |    |    Cu             Cu       |  
 |   Cu             Cu             |  
 |    |                            |  
 |    |  Cl            Cl          |  
 |    |                            |  
 |    |                            |  
 |    |                            |  
 |    |                            |  
 |    |                            |  
 |    |                            |  
 |    .----------------------------.  
 |   /                            /   
 |  /                            /    
 | /                            /     
 |/                            /      
 *----------------------------*       

Positions:
   0 Cu     3.273556   -0.005621   10.095003    ( 0.0000,  0.0000,  0.0000)
   1 Cu     1.275799    1.762800   10.706563    ( 0.0000,  0.0000,  0.0000)
   2 Cu     7.137485    1.793283   10.695477    ( 0.0000,  0.0000,  0.0000)
   3 Cu     9.053716   -0.031920   10.187849    ( 0.0000,  0.0000,  0.0000)
   4 Cu    11.328383   -0.077369   11.207466    ( 0.0000,  0.0000,  0.0000)
   5 Cu     9.608477    1.786868   11.764189    ( 0.0000,  0.0000,  0.0000)
   6 Cu     3.760059    1.772662   11.775283    ( 0.0000,  0.0000,  0.0000)
   7 Cu     5.495510   -0.071260   11.149775    ( 0.0000,  0.0000,  0.0000)
   8 Cu     7.811084   -0.068966   12.340340    ( 0.0000,  0.0000,  0.0000)
   9 Cu     6.093179    1.776770   12.904519    ( 0.0000,  0.0000,  0.0000)
  10 Cu     0.236121    1.777736   12.907499    ( 0.0000,  0.0000,  0.0000)
  11 Cu     1.999741   -0.071890   12.343265    ( 0.0000,  0.0000,  0.0000)
  12 Cu     4.339397   -0.072704   13.486046    ( 0.0000,  0.0000,  0.0000)
  13 Cu     2.579688    1.785302   14.099176    ( 0.0000,  0.0000,  0.0000)
  14 Cu     8.435590    1.776239   14.099332    ( 0.0000,  0.0000,  0.0000)
  15 Cu    10.177927   -0.070460   13.507634    ( 0.0000,  0.0000,  0.0000)
  16 Cu     0.834080   -0.071860   14.680002    ( 0.0000,  0.0000,  0.0000)
  17 Cu    10.788530    1.783950   15.258954    ( 0.0000,  0.0000,  0.0000)
  18 Cu     4.935002    1.775004   15.252407    ( 0.0000,  0.0000,  0.0000)
  19 Cu     6.688729   -0.072069   14.680504    ( 0.0000,  0.0000,  0.0000)
  20 Cu     9.034676   -0.068898   15.849113    ( 0.0000,  0.0000,  0.0000)
  21 Cu     7.280590    1.781277   16.438655    ( 0.0000,  0.0000,  0.0000)
  22 Cu     1.431113    1.777219   16.442862    ( 0.0000,  0.0000,  0.0000)
  23 Cu     3.184054   -0.070903   15.841638    ( 0.0000,  0.0000,  0.0000)
  24 Cu     5.529527   -0.071538   17.019107    ( 0.0000,  0.0000,  0.0000)
  25 Cu     3.774696    1.779777   17.607723    ( 0.0000,  0.0000,  0.0000)
  26 Cu     9.624921    1.781843   17.618915    ( 0.0000,  0.0000,  0.0000)
  27 Cu    11.376932   -0.070178   17.017789    ( 0.0000,  0.0000,  0.0000)
  28 Cu     2.020261   -0.075321   18.203270    ( 0.0000,  0.0000,  0.0000)
  29 Cu     0.271297    1.778235   18.778560    ( 0.0000,  0.0000,  0.0000)
  30 Cu     6.121812    1.781465   18.778193    ( 0.0000,  0.0000,  0.0000)
  31 Cu     7.875122   -0.065560   18.201745    ( 0.0000,  0.0000,  0.0000)
  32 Cu    10.227003   -0.074707   19.363721    ( 0.0000,  0.0000,  0.0000)
  33 Cu     8.470571    1.780205   19.974483    ( 0.0000,  0.0000,  0.0000)
  34 Cu     2.631408    1.780970   19.950019    ( 0.0000,  0.0000,  0.0000)
  35 Cu     4.376445   -0.063287   19.357678    ( 0.0000,  0.0000,  0.0000)
  36 Cu     6.731941   -0.070646   20.528988    ( 0.0000,  0.0000,  0.0000)
  37 Cu     4.997053    1.785573   21.115764    ( 0.0000,  0.0000,  0.0000)
  38 Cu    10.807545    1.785386   21.111190    ( 0.0000,  0.0000,  0.0000)
  39 Cu     0.878185   -0.072046   20.532391    ( 0.0000,  0.0000,  0.0000)
  40 Cu     3.199724   -0.076958   21.676336    ( 0.0000,  0.0000,  0.0000)
  41 Cu     1.489359    1.786968   22.250376    ( 0.0000,  0.0000,  0.0000)
  42 Cu     7.323292    1.789830   22.312278    ( 0.0000,  0.0000,  0.0000)
  43 Cu     9.051697   -0.065161   21.692871    ( 0.0000,  0.0000,  0.0000)
  44 Cu    11.458325   -0.058795   22.847378    ( 0.0000,  0.0000,  0.0000)
  45 Cu     9.554831    1.838747   23.379861    ( 0.0000,  0.0000,  0.0000)
  46 Cu     3.766697    1.821156   23.281407    ( 0.0000,  0.0000,  0.0000)
  47 Cu     5.646157   -0.088009   22.807832    ( 0.0000,  0.0000,  0.0000)
  48 Cu     3.173631    3.642205   10.132522    ( 0.0000,  0.0000,  0.0000)
  49 Cu     1.293079    5.479405   10.684764    ( 0.0000,  0.0000,  0.0000)
  50 Cu     7.139349    5.451114   10.690211    ( 0.0000,  0.0000,  0.0000)
  51 Cu     9.085129    3.677471   10.030767    ( 0.0000,  0.0000,  0.0000)
  52 Cu    11.343745    3.631838   11.145778    ( 0.0000,  0.0000,  0.0000)
  53 Cu     9.610580    5.469743   11.773072    ( 0.0000,  0.0000,  0.0000)
  54 Cu     3.755632    5.483056   11.761754    ( 0.0000,  0.0000,  0.0000)
  55 Cu     5.474186    3.625472   11.203536    ( 0.0000,  0.0000,  0.0000)
  56 Cu     7.852613    3.630518   12.339183    ( 0.0000,  0.0000,  0.0000)
  57 Cu     6.088844    5.479056   12.905493    ( 0.0000,  0.0000,  0.0000)
  58 Cu     0.242127    5.478084   12.902987    ( 0.0000,  0.0000,  0.0000)
  59 Cu     1.961252    3.633615   12.335484    ( 0.0000,  0.0000,  0.0000)
  60 Cu     4.326084    3.630721   13.508561    ( 0.0000,  0.0000,  0.0000)
  61 Cu     2.583838    5.477287   14.099336    ( 0.0000,  0.0000,  0.0000)
  62 Cu     8.431516    5.486362   14.099335    ( 0.0000,  0.0000,  0.0000)
  63 Cu    10.191103    3.628501   13.486965    ( 0.0000,  0.0000,  0.0000)
  64 Cu     0.837014    3.629007   14.679809    ( 0.0000,  0.0000,  0.0000)
  65 Cu    10.786812    5.476109   15.252413    ( 0.0000,  0.0000,  0.0000)
  66 Cu     4.936834    5.485017   15.258969    ( 0.0000,  0.0000,  0.0000)
  67 Cu     6.685949    3.629218   14.679302    ( 0.0000,  0.0000,  0.0000)
  68 Cu     9.035737    3.630029   15.841159    ( 0.0000,  0.0000,  0.0000)
  69 Cu     7.282933    5.478160   16.442894    ( 0.0000,  0.0000,  0.0000)
  70 Cu     1.428833    5.482202   16.438635    ( 0.0000,  0.0000,  0.0000)
  71 Cu     3.182785    3.632049   15.848678    ( 0.0000,  0.0000,  0.0000)
  72 Cu     5.525128    3.630797   17.017506    ( 0.0000,  0.0000,  0.0000)
  73 Cu     3.773144    5.482863   17.618792    ( 0.0000,  0.0000,  0.0000)
  74 Cu     9.626515    5.480782   17.607698    ( 0.0000,  0.0000,  0.0000)
  75 Cu    11.381276    3.629463   17.018766    ( 0.0000,  0.0000,  0.0000)
  76 Cu     2.023262    3.635427   18.202957    ( 0.0000,  0.0000,  0.0000)
  77 Cu     0.270007    5.482536   18.778186    ( 0.0000,  0.0000,  0.0000)
  78 Cu     6.123056    5.479151   18.778605    ( 0.0000,  0.0000,  0.0000)
  79 Cu     7.871997    3.625643   18.204363    ( 0.0000,  0.0000,  0.0000)
  80 Cu    10.228259    3.637677   19.356323    ( 0.0000,  0.0000,  0.0000)
  81 Cu     8.483143    5.481193   19.950007    ( 0.0000,  0.0000,  0.0000)
  82 Cu     2.618843    5.480402   19.974345    ( 0.0000,  0.0000,  0.0000)
  83 Cu     4.375279    3.626307   19.362420    ( 0.0000,  0.0000,  0.0000)
  84 Cu     6.717813    3.628944   20.557238    ( 0.0000,  0.0000,  0.0000)
  85 Cu     4.955830    5.477439   21.111446    ( 0.0000,  0.0000,  0.0000)
  86 Cu    10.847949    5.476693   21.115624    ( 0.0000,  0.0000,  0.0000)
  87 Cu     0.870146    3.630316   20.549245    ( 0.0000,  0.0000,  0.0000)
  88 Cu     3.199035    3.637012   21.694726    ( 0.0000,  0.0000,  0.0000)
  89 Cu     1.473071    5.469235   22.312407    ( 0.0000,  0.0000,  0.0000)
  90 Cu     7.341138    5.468365   22.250764    ( 0.0000,  0.0000,  0.0000)
  91 Cu     9.051959    3.624038   21.679411    ( 0.0000,  0.0000,  0.0000)
  92 Cu    11.536786    3.613176   22.750402    ( 0.0000,  0.0000,  0.0000)
  93 Cu     9.624216    5.441912   23.290041    ( 0.0000,  0.0000,  0.0000)
  94 Cu     3.704477    5.449589   23.382865    ( 0.0000,  0.0000,  0.0000)
  95 Cu     5.671357    3.642241   22.759567    ( 0.0000,  0.0000,  0.0000)
  96 Cl     4.328156    3.623836   24.691018    ( 0.0000,  0.0000,  0.0000)
  97 Cl    10.199199    3.652628   24.699007    ( 0.0000,  0.0000,  0.0000)
  98 Cl     4.374515   -0.041519   24.441887    ( 0.0000,  0.0000,  0.0000)
  99 Cl    10.236165   -0.083130   24.392245    ( 0.0000,  0.0000,  0.0000)
 100 Cl     2.615331    1.819046    8.761083    ( 0.0000,  0.0000,  0.0000)
 101 Cl     8.486955    1.791254    8.773291    ( 0.0000,  0.0000,  0.0000)
 102 Cl     2.660136    5.573952    8.761913    ( 0.0000,  0.0000,  0.0000)
 103 Cl     8.508944    5.598366    8.754062    ( 0.0000,  0.0000,  0.0000)

Unit cell:
           periodic     x           y           z      points  spacing
  1. axis:    yes   11.703590    0.000000    0.000000    70     0.1672
  2. axis:    yes    0.000000    7.402000    0.000000    42     0.1762
  3. axis:    no     0.000000    0.000000   33.459128   192     0.1743

  Lengths:  11.703590   7.402000  33.459128
  Angles:   90.000000  90.000000  90.000000

Effective grid spacing dv^(1/3) = 0.1725

     iter     time        total  log10-change:
                         energy  eigst   dens
iter:   1 05:23:56 -7617.384414  -0.62
iter:   2 05:27:59 -7581.266579  -0.95  -1.48
iter:   3 05:32:14 -7586.038729  -1.62  -1.77
iter:   4 05:36:22 -7567.998674  -2.06  -1.72
iter:   5 05:40:29 -7567.181581  -2.27  -2.04
iter:   6 05:44:29 -7565.308940  -2.46  -2.09
iter:   7 05:49:12 -7564.329203  -2.73  -2.35
iter:   8 05:53:20 -7564.147964  -2.93  -2.54
iter:   9 05:57:23 -7564.146562c -3.85  -2.86
iter:  10 06:01:41 -7564.100354c -3.63  -2.88
iter:  11 06:05:41 -7564.087953c -4.13  -3.00
iter:  12 06:10:01 -7564.072296c -4.21  -3.16
iter:  13 06:14:12 -7564.069494c -4.54  -3.29
iter:  14 06:18:19 -7564.066723c -4.69  -3.43
iter:  15 06:22:16 -7564.065239c -5.69  -3.57
iter:  16 06:26:18 -7564.065844c -5.29  -3.61
iter:  17 06:30:23 -7564.063913c -6.04  -3.59
iter:  18 06:34:31 -7564.063275c -5.59  -3.78
iter:  19 06:38:35 -7564.063771c -5.68  -3.99
iter:  20 06:42:36 -7564.063372c -6.39  -3.96
iter:  21 06:46:36 -7564.063093c -5.92  -4.05c
iter:  22 06:50:41 -7564.063130c -7.14  -4.23c
iter:  23 06:54:37 -7564.063102c -6.72  -4.20c
iter:  24 06:58:40 -7564.063118c -6.46  -4.29c
iter:  25 07:02:34 -7564.063099c -7.84c -4.41c

Converged after 25 iterations.

Dipole moment: (18.243271, 64.002596, 0.324937) |e|*Ang

Energy contributions relative to reference atoms: (reference = -4422498.971913)

Kinetic:       +804.371273
Potential:     -866.447786
External:        +0.000000
XC:            -7500.302540
Entropy (-ST):   -0.965397
Local:           -1.201348
--------------------------
Free energy:   -7564.545798
Extrapolated:  -7564.063099

Showing only first 2 kpts
 Kpt  Band  Eigenvalues  Occupancy
  0   554      0.42439    0.98944
  0   555      0.44166    0.90335
  0   556      0.59989    0.28956
  0   557      0.66087    0.16849

  1   554      0.14610    1.88115
  1   555      0.23247    1.73933
  1   556      0.24896    1.69962
  1   557      0.27121    1.63829


Fermi level: 0.42227

No gap

Forces in eV/Ang:
  0 Cu   -0.18846   -0.14514   -0.01218
  1 Cu    0.16624    0.00821   -0.31512
  2 Cu    0.12115    0.06101   -0.25836
  3 Cu   -0.00793   -0.11363   -0.29922
  4 Cu    0.09452   -0.01169    0.20408
  5 Cu    0.11643    0.16988    0.11650
  6 Cu    0.08514    0.11120    0.10592
  7 Cu    0.09421   -0.02350    0.36194
  8 Cu    0.07927   -0.03470    0.28349
  9 Cu   -0.04629    0.01955    0.26542
 10 Cu   -0.05031    0.00204    0.26917
 11 Cu   -0.01985   -0.01901    0.12430
 12 Cu   -0.06800   -0.00750    0.10053
 13 Cu    0.00653   -0.02845    0.03111
 14 Cu   -0.00196    0.02499    0.01920
 15 Cu   -0.08269   -0.00377    0.02754
 16 Cu   -0.02718   -0.00048    0.04321
 17 Cu    0.00296   -0.01469   -0.07559
 18 Cu    0.00839    0.00988   -0.06698
 19 Cu   -0.04482    0.00083    0.06867
 20 Cu   -0.02219   -0.00031    0.03208
 21 Cu    0.01846   -0.00010    0.00174
 22 Cu    0.01511    0.00614   -0.00475
 23 Cu   -0.02393   -0.00281    0.03284
 24 Cu   -0.02209    0.00363    0.00406
 25 Cu    0.02530   -0.00138   -0.03535
 26 Cu    0.02667   -0.00214   -0.04330
 27 Cu   -0.01479   -0.00272    0.00484
 28 Cu    0.02448    0.01266    0.02257
 29 Cu    0.02250    0.01583   -0.05320
 30 Cu    0.03770    0.00695   -0.07791
 31 Cu    0.00706   -0.01526    0.03190
 32 Cu    0.00334    0.02181   -0.02308
 33 Cu    0.07562   -0.00292   -0.12639
 34 Cu    0.09489    0.00823   -0.04859
 35 Cu    0.00986   -0.03475   -0.00924
 36 Cu   -0.11121   -0.01247    0.07683
 37 Cu   -0.04006   -0.07364   -0.30007
 38 Cu    0.07504   -0.07962   -0.13260
 39 Cu   -0.15589    0.01238    0.14932
 40 Cu   -0.15374   -0.02150   -0.11007
 41 Cu   -0.16029   -0.15102   -0.22334
 42 Cu   -0.10977   -0.09110   -0.38256
 43 Cu   -0.21269    0.03878   -0.21132
 44 Cu    2.71379    0.10171   -3.22807
 45 Cu   -0.08377    0.31660   -0.32484
 46 Cu   -0.19597    0.24894   -0.02238
 47 Cu    1.42405   -0.06584   -1.70660
 48 Cu    0.04452    0.04053   -0.15540
 49 Cu    0.13261    0.11581   -0.25721
 50 Cu    0.14712    0.06658   -0.26779
 51 Cu   -0.07152   -0.03800    0.16786
 52 Cu   -0.05847    0.00429    0.31318
 53 Cu    0.06868    0.00268    0.05101
 54 Cu    0.09443    0.04402    0.05805
 55 Cu   -0.00893    0.01680    0.17163
 56 Cu    0.01005   -0.00539    0.10178
 57 Cu   -0.03312   -0.00635    0.22612
 58 Cu   -0.03847    0.01061    0.23841
 59 Cu    0.12151   -0.02279    0.24715
 60 Cu   -0.07920    0.00303    0.03288
 61 Cu   -0.00031    0.02080    0.02061
 62 Cu    0.00862   -0.03329    0.03090
 63 Cu   -0.06606    0.00035    0.10573
 64 Cu   -0.04167    0.00328    0.06225
 65 Cu    0.01060    0.01141   -0.06899
 66 Cu    0.00405   -0.01327   -0.07805
 67 Cu   -0.02547    0.00234    0.03730
 68 Cu   -0.02390   -0.00307    0.03748
 69 Cu    0.01513    0.00282   -0.00389
 70 Cu    0.01927   -0.00371    0.00202
 71 Cu   -0.02301   -0.00059    0.03666
 72 Cu   -0.01458   -0.00305   -0.00171
 73 Cu    0.02743   -0.00234   -0.04320
 74 Cu    0.02446   -0.00157   -0.03691
 75 Cu   -0.02092    0.00378   -0.00162
 76 Cu   -0.01035   -0.01519    0.07430
 77 Cu    0.03701   -0.01381   -0.07964
 78 Cu    0.02317   -0.00622   -0.05207
 79 Cu    0.00201    0.01227    0.07269
 80 Cu   -0.00092   -0.03550   -0.03934
 81 Cu    0.09341   -0.00208   -0.04831
 82 Cu    0.07560   -0.00919   -0.12828
 83 Cu   -0.00632    0.02263   -0.05890
 84 Cu    0.03790    0.00860   -0.30525
 85 Cu    0.06270    0.05271   -0.12764
 86 Cu   -0.02692    0.06643   -0.29005
 87 Cu    0.03206   -0.00444   -0.28746
 88 Cu   -0.12075    0.05279   -0.21029
 89 Cu   -0.13115    0.15192   -0.38797
 90 Cu   -0.12655    0.10233   -0.21118
 91 Cu   -0.10515   -0.00392   -0.14343
 92 Cu   -0.12340   -0.01633    0.25795
 93 Cu   -0.27927   -0.44665   -0.12177
 94 Cu   -0.04102   -0.23508   -0.31276
 95 Cu   -0.06530    0.04947    0.21949
 96 Cl    0.08932   -0.00760    0.77534
 97 Cl    0.09689   -0.01424    0.74626
 98 Cl   -0.92328   -0.01093    3.00963
 99 Cl   -1.96524    0.04270    4.55891
100 Cl   -0.09412    0.04791   -0.60538
101 Cl   -0.06524    0.05814   -0.62416
102 Cl   -0.07370   -0.18756   -0.50470
103 Cl   -0.09829   -0.18267   -0.53641

System changes: positions 

Initializing position-dependent things.

Density initialized from wave functions
      .----------------------------.  
     /|                            |  
    / |                            |  
   /  |                            |  
  /   |                            |  
 *    |                            |  
 |    |                            |  
 |    |                            |  
 |    |                            |  
 |    |                            |  
 |    |                            |  
 |    |          Cl            Cl  |  
 |    |                            |  
 |    |       Cl    Cu       Cl   Cu  
 |    |       Cu            Cu     |  
 |    | Cu    Cu       Cu          |  
 |    | Cu  Cu   Cu    Cu Cu    Cu |  
 |    |    Cu    Cu Cu    Cu   Cu  |  
 |    Cu   Cu       Cu    Cu       |  
 |   Cu    Cu  Cu   Cu   Cu  Cu    |  
 |    |  Cu   Cu    Cu Cu    Cu   Cu  
 |    | Cu    Cu       Cu    Cu    |  
 | Cu | Cu    Cu Cu    Cu   Cu     |  
 |    | Cu  Cu   Cu    Cu Cu    Cu |  
 |    |    Cu    Cu       Cu   Cu  |  
 |    Cu   Cu    Cu Cu    Cu       |  
 |   CCu   Cu Cu    Cu   Cu  Cu    |  
 |    |       Cu    Cu       Cu   Cu  
 |    | CCu   Cu       Cu    Cu    |  
 | Cu | Cu    Cu Cu   Cu    Cu     |  
 |    |     Cu   Cu       Cu    Cu |  
 |    |    Cu             Cu       |  
 |   Cu    Cl       Cu    Cl       |  
 |    |                            |  
 |    |  Cl            Cl          |  
 |    |                            |  
 |    |                            |  
 |    |                            |  
 |    |                            |  
 |    |                            |  
 |    |                            |  
 |    .----------------------------.  
 |   /                            /   
 |  /                            /    
 | /                            /     
 |/                            /      
 *----------------------------*       

Positions:
   0 Cu     3.261201   -0.024455   10.107428    ( 0.0000,  0.0000,  0.0000)
   1 Cu     1.296836    1.762724   10.669459    ( 0.0000,  0.0000,  0.0000)
   2 Cu     7.156398    1.800632   10.660612    ( 0.0000,  0.0000,  0.0000)
   3 Cu     9.056410   -0.046205   10.166874    ( 0.0000,  0.0000,  0.0000)
   4 Cu    11.338524   -0.078392   11.226568    ( 0.0000,  0.0000,  0.0000)
   5 Cu     9.621123    1.802890   11.775964    ( 0.0000,  0.0000,  0.0000)
   6 Cu     3.769797    1.781520   11.786507    ( 0.0000,  0.0000,  0.0000)
   7 Cu     5.503140   -0.073649   11.184041    ( 0.0000,  0.0000,  0.0000)
   8 Cu     7.818265   -0.072658   12.369777    ( 0.0000,  0.0000,  0.0000)
   9 Cu     6.089620    1.778619   12.926686    ( 0.0000,  0.0000,  0.0000)
  10 Cu     0.232278    1.777881   12.929797    ( 0.0000,  0.0000,  0.0000)
  11 Cu     1.997431   -0.073941   12.354639    ( 0.0000,  0.0000,  0.0000)
  12 Cu     4.332503   -0.073430   13.495112    ( 0.0000,  0.0000,  0.0000)
  13 Cu     2.580558    1.782739   14.101340    ( 0.0000,  0.0000,  0.0000)
  14 Cu     8.435604    1.778518   14.100455    ( 0.0000,  0.0000,  0.0000)
  15 Cu    10.169306   -0.070891   13.509957    ( 0.0000,  0.0000,  0.0000)
  16 Cu     0.831548   -0.071929   14.684219    ( 0.0000,  0.0000,  0.0000)
  17 Cu    10.788869    1.782551   15.251160    ( 0.0000,  0.0000,  0.0000)
  18 Cu     4.935941    1.775932   15.245506    ( 0.0000,  0.0000,  0.0000)
  19 Cu     6.684546   -0.071967   14.686900    ( 0.0000,  0.0000,  0.0000)
  20 Cu     9.032481   -0.068916   15.852245    ( 0.0000,  0.0000,  0.0000)
  21 Cu     7.282489    1.781224   16.438516    ( 0.0000,  0.0000,  0.0000)
  22 Cu     1.432733    1.777816   16.442072    ( 0.0000,  0.0000,  0.0000)
  23 Cu     3.181649   -0.071169   15.844818    ( 0.0000,  0.0000,  0.0000)
  24 Cu     5.527314   -0.071151   17.019711    ( 0.0000,  0.0000,  0.0000)
  25 Cu     3.777112    1.779617   17.604293    ( 0.0000,  0.0000,  0.0000)
  26 Cu     9.627511    1.781588   17.614814    ( 0.0000,  0.0000,  0.0000)
  27 Cu    11.375344   -0.070484   17.018476    ( 0.0000,  0.0000,  0.0000)
  28 Cu     2.021978   -0.074150   18.206873    ( 0.0000,  0.0000,  0.0000)
  29 Cu     0.273605    1.779582   18.773406    ( 0.0000,  0.0000,  0.0000)
  30 Cu     6.125532    1.781954   18.770887    ( 0.0000,  0.0000,  0.0000)
  31 Cu     7.875251   -0.067003   18.206077    ( 0.0000,  0.0000,  0.0000)
  32 Cu    10.226864   -0.072777   19.361961    ( 0.0000,  0.0000,  0.0000)
  33 Cu     8.478230    1.780151   19.963107    ( 0.0000,  0.0000,  0.0000)
  34 Cu     2.641251    1.781855   19.945808    ( 0.0000,  0.0000,  0.0000)
  35 Cu     4.376980   -0.066460   19.357461    ( 0.0000,  0.0000,  0.0000)
  36 Cu     6.727575   -0.071659   20.523700    ( 0.0000,  0.0000,  0.0000)
  37 Cu     4.991253    1.780405   21.085049    ( 0.0000,  0.0000,  0.0000)
  38 Cu    10.812759    1.779988   21.099027    ( 0.0000,  0.0000,  0.0000)
  39 Cu     0.871561   -0.070881   20.530256    ( 0.0000,  0.0000,  0.0000)
  40 Cu     3.187844   -0.079448   21.667625    ( 0.0000,  0.0000,  0.0000)
  41 Cu     1.477384    1.779283   22.228870    ( 0.0000,  0.0000,  0.0000)
  42 Cu     7.317699    1.786953   22.275376    ( 0.0000,  0.0000,  0.0000)
  43 Cu     9.035757   -0.060943   21.676385    ( 0.0000,  0.0000,  0.0000)
  44 Cu    11.482194   -0.046665   22.794274    ( 0.0000,  0.0000,  0.0000)
  45 Cu     9.548808    1.859576   23.335659    ( 0.0000,  0.0000,  0.0000)
  46 Cu     3.751698    1.835435   23.270372    ( 0.0000,  0.0000,  0.0000)
  47 Cu     5.606773   -0.090803   22.831231    ( 0.0000,  0.0000,  0.0000)
  48 Cu     3.181174    3.648432   10.123446    ( 0.0000,  0.0000,  0.0000)
  49 Cu     1.306541    5.493138   10.659418    ( 0.0000,  0.0000,  0.0000)
  50 Cu     7.151908    5.457790   10.666635    ( 0.0000,  0.0000,  0.0000)
  51 Cu     9.081977    3.674205   10.054425    ( 0.0000,  0.0000,  0.0000)
  52 Cu    11.337986    3.632369   11.175553    ( 0.0000,  0.0000,  0.0000)
  53 Cu     9.618792    5.469170   11.779328    ( 0.0000,  0.0000,  0.0000)
  54 Cu     3.766234    5.487898   11.768013    ( 0.0000,  0.0000,  0.0000)
  55 Cu     5.475145    3.627351   11.219454    ( 0.0000,  0.0000,  0.0000)
  56 Cu     7.852966    3.630041   12.348372    ( 0.0000,  0.0000,  0.0000)
  57 Cu     6.086775    5.478519   12.923527    ( 0.0000,  0.0000,  0.0000)
  58 Cu     0.239515    5.479208   12.922319    ( 0.0000,  0.0000,  0.0000)
  59 Cu     1.972470    3.631468   12.361238    ( 0.0000,  0.0000,  0.0000)
  60 Cu     4.317754    3.630869   13.511375    ( 0.0000,  0.0000,  0.0000)
  61 Cu     2.583970    5.479176   14.100558    ( 0.0000,  0.0000,  0.0000)
  62 Cu     8.432544    5.483363   14.101496    ( 0.0000,  0.0000,  0.0000)
  63 Cu    10.184361    3.628431   13.496531    ( 0.0000,  0.0000,  0.0000)
  64 Cu     0.833106    3.629309   14.685576    ( 0.0000,  0.0000,  0.0000)
  65 Cu    10.787922    5.477203   15.245385    ( 0.0000,  0.0000,  0.0000)
  66 Cu     4.937268    5.483775   15.250984    ( 0.0000,  0.0000,  0.0000)
  67 Cu     6.683584    3.629382   14.682925    ( 0.0000,  0.0000,  0.0000)
  68 Cu     9.033349    3.629737   15.844735    ( 0.0000,  0.0000,  0.0000)
  69 Cu     7.284564    5.478487   16.442186    ( 0.0000,  0.0000,  0.0000)
  70 Cu     1.430802    5.481861   16.438525    ( 0.0000,  0.0000,  0.0000)
  71 Cu     3.180551    3.631996   15.852231    ( 0.0000,  0.0000,  0.0000)
  72 Cu     5.523581    3.630463   17.017572    ( 0.0000,  0.0000,  0.0000)
  73 Cu     3.775789    5.482699   17.614668    ( 0.0000,  0.0000,  0.0000)
  74 Cu     9.628868    5.480729   17.604147    ( 0.0000,  0.0000,  0.0000)
  75 Cu    11.379164    3.629861   17.018801    ( 0.0000,  0.0000,  0.0000)
  76 Cu     2.022085    3.633985   18.210600    ( 0.0000,  0.0000,  0.0000)
  77 Cu     0.273666    5.481418   18.770748    ( 0.0000,  0.0000,  0.0000)
  78 Cu     6.125409    5.478766   18.773555    ( 0.0000,  0.0000,  0.0000)
  79 Cu     7.872038    3.626768   18.211848    ( 0.0000,  0.0000,  0.0000)
  80 Cu    10.228045    3.634452   19.353532    ( 0.0000,  0.0000,  0.0000)
  81 Cu     8.492840    5.480765   19.945828    ( 0.0000,  0.0000,  0.0000)
  82 Cu     2.626521    5.479318   19.962780    ( 0.0000,  0.0000,  0.0000)
  83 Cu     4.374490    3.628301   19.357668    ( 0.0000,  0.0000,  0.0000)
  84 Cu     6.721106    3.629847   20.531482    ( 0.0000,  0.0000,  0.0000)
  85 Cu     4.960150    5.480256   21.099538    ( 0.0000,  0.0000,  0.0000)
  86 Cu    10.842751    5.480047   21.085565    ( 0.0000,  0.0000,  0.0000)
  87 Cu     0.872840    3.629865   20.525137    ( 0.0000,  0.0000,  0.0000)
  88 Cu     3.186384    3.642945   21.674677    ( 0.0000,  0.0000,  0.0000)
  89 Cu     1.466561    5.476344   22.275148    ( 0.0000,  0.0000,  0.0000)
  90 Cu     7.331794    5.472214   22.230192    ( 0.0000,  0.0000,  0.0000)
  91 Cu     9.040763    3.622581   21.664981    ( 0.0000,  0.0000,  0.0000)
  92 Cu    11.518479    3.610493   22.783495    ( 0.0000,  0.0000,  0.0000)
  93 Cu     9.602644    5.413851   23.271754    ( 0.0000,  0.0000,  0.0000)
  94 Cu     3.702150    5.433906   23.340238    ( 0.0000,  0.0000,  0.0000)
  95 Cu     5.656087    3.648344   22.792472    ( 0.0000,  0.0000,  0.0000)
  96 Cl     4.352652    3.621134   24.758319    ( 0.0000,  0.0000,  0.0000)
  97 Cl    10.222903    3.653850   24.768863    ( 0.0000,  0.0000,  0.0000)
  98 Cl     4.437924   -0.042808   24.562594    ( 0.0000,  0.0000,  0.0000)
  99 Cl    10.253791   -0.086219   24.591442    ( 0.0000,  0.0000,  0.0000)
 100 Cl     2.593038    1.828051    8.702906    ( 0.0000,  0.0000,  0.0000)
 101 Cl     8.466726    1.797570    8.718899    ( 0.0000,  0.0000,  0.0000)
 102 Cl     2.646802    5.553665    8.710978    ( 0.0000,  0.0000,  0.0000)
 103 Cl     8.495503    5.582843    8.698121    ( 0.0000,  0.0000,  0.0000)

Unit cell:
           periodic     x           y           z      points  spacing
  1. axis:    yes   11.703590    0.000000    0.000000    70     0.1672
  2. axis:    yes    0.000000    7.402000    0.000000    42     0.1762
  3. axis:    no     0.000000    0.000000   33.459128   192     0.1743

  Lengths:  11.703590   7.402000  33.459128
  Angles:   90.000000  90.000000  90.000000

Effective grid spacing dv^(1/3) = 0.1725

     iter     time        total  log10-change:
                         energy  eigst   dens
iter:   1 07:09:08 -7586.574058  -1.26
iter:   2 07:13:15 -7571.308756  -1.49  -1.71
iter:   3 07:17:28 -7572.672616  -2.16  -2.04
iter:   4 07:21:23 -7565.860572  -2.77  -1.98
iter:   5 07:25:18 -7565.605977  -3.00  -2.49
iter:   6 07:29:16 -7565.401895c -3.31  -2.60
iter:   7 07:33:19 -7565.345601c -3.37  -2.86
iter:   8 07:37:21 -7565.317726c -4.27  -2.94
iter:   9 07:41:33 -7565.302205c -4.70  -3.14
iter:  10 07:45:32 -7565.300900c -4.28  -3.27
iter:  11 07:49:32 -7565.295387c -5.18  -3.36
iter:  12 07:53:24 -7565.293828c -5.56  -3.45
iter:  13 07:57:20 -7565.291579c -5.17  -3.54
iter:  14 08:01:27 -7565.291624c -5.88  -3.82
iter:  15 08:05:35 -7565.290981c -6.09  -3.90
iter:  16 08:09:37 -7565.290743c -6.35  -4.10c
iter:  17 08:13:32 -7565.290790c -6.32  -4.25c
iter:  18 08:17:30 -7565.290751c -6.77  -4.28c
iter:  19 08:21:30 -7565.290740c -7.09  -4.44c
iter:  20 08:25:29 -7565.290658c -6.99  -4.41c
iter:  21 08:29:36 -7565.290638c -7.29  -4.72c
iter:  22 08:33:38 -7565.290646c -8.39c -4.83c

Converged after 22 iterations.

Dipole moment: (18.199329, 65.489150, 0.157686) |e|*Ang

Energy contributions relative to reference atoms: (reference = -4422498.971913)

Kinetic:       +781.899615
Potential:     -849.025324
External:        +0.000000
XC:            -7496.521768
Entropy (-ST):   -0.972711
Local:           -1.156814
--------------------------
Free energy:   -7565.777001
Extrapolated:  -7565.290646

Showing only first 2 kpts
 Kpt  Band  Eigenvalues  Occupancy
  0   554      0.31345    0.99209
  0   555      0.33199    0.89971
  0   556      0.48343    0.30485
  0   557      0.55169    0.16660

  1   554      0.03819    1.87832
  1   555      0.12934    1.72239
  1   556      0.13901    1.69844
  1   557      0.16656    1.62092


Fermi level: 0.31186

No gap

Forces in eV/Ang:
  0 Cu   -0.16270   -0.04503   -0.15101
  1 Cu    0.06262    0.03525   -0.07962
  2 Cu    0.03227    0.00019   -0.03038
  3 Cu   -0.02702   -0.02407   -0.23260
  4 Cu    0.04544    0.03558    0.13616
  5 Cu    0.02494   -0.01747   -0.00597
  6 Cu    0.01739    0.03519   -0.00606
  7 Cu    0.08048    0.03318    0.24674
  8 Cu    0.08389    0.02292    0.02073
  9 Cu    0.06367    0.01775    0.03991
 10 Cu    0.07319    0.00299    0.03198
 11 Cu   -0.01980    0.02604    0.04994
 12 Cu   -0.05198    0.00506    0.09595
 13 Cu   -0.00743   -0.03015    0.06217
 14 Cu   -0.01330    0.02030    0.05375
 15 Cu   -0.04355    0.00508    0.04036
 16 Cu   -0.01298   -0.00031    0.05065
 17 Cu   -0.01883   -0.01538    0.00986
 18 Cu   -0.01538    0.01062    0.01203
 19 Cu   -0.02199   -0.00101    0.07835
 20 Cu   -0.01533   -0.00094    0.02214
 21 Cu    0.00727    0.00153    0.01274
 22 Cu    0.00042    0.00374    0.00978
 23 Cu   -0.01345   -0.00244    0.03483
 24 Cu   -0.00740   -0.00046   -0.01199
 25 Cu    0.01982   -0.00444   -0.03017
 26 Cu    0.01963   -0.00407   -0.04579
 27 Cu    0.00167    0.00050   -0.01397
 28 Cu    0.01868    0.01391   -0.00299
 29 Cu    0.01878   -0.00658   -0.05851
 30 Cu    0.02471   -0.00911   -0.08589
 31 Cu    0.01376   -0.01481   -0.00593
 32 Cu    0.01217    0.02312   -0.08546
 33 Cu    0.04229   -0.00939   -0.13658
 34 Cu    0.03543   -0.01277   -0.07008
 35 Cu    0.01191   -0.03372   -0.06675
 36 Cu   -0.15275   -0.01028    0.10968
 37 Cu   -0.02551   -0.01693   -0.06345
 38 Cu    0.04254    0.00907   -0.09092
 39 Cu   -0.08594    0.00366   -0.02005
 40 Cu   -0.06852    0.01551   -0.01014
 41 Cu   -0.10500   -0.02560   -0.15611
 42 Cu   -0.19894   -0.07701   -0.27794
 43 Cu   -0.03728   -0.01481    0.01312
 44 Cu    0.53475   -0.02133   -0.68263
 45 Cu    0.16143   -0.13865    0.18420
 46 Cu   -0.04191    0.00490    0.23546
 47 Cu    1.18490   -0.02374   -1.60020
 48 Cu    0.00822   -0.01637   -0.16802
 49 Cu    0.06806    0.01764   -0.09261
 50 Cu    0.10180    0.05017   -0.13623
 51 Cu   -0.09317   -0.04421   -0.01605
 52 Cu    0.09228    0.01520    0.22980
 53 Cu    0.02139    0.03703    0.01237
 54 Cu    0.03872   -0.00337    0.02967
 55 Cu    0.05465    0.01548    0.11987
 56 Cu   -0.04041    0.00820    0.03742
 57 Cu    0.04561   -0.01920    0.07333
 58 Cu    0.04581   -0.00656    0.06718
 59 Cu    0.04485   -0.00057    0.01792
 60 Cu   -0.03208    0.01779    0.06258
 61 Cu   -0.00961    0.01776    0.05098
 62 Cu   -0.00290   -0.03339    0.06209
 63 Cu   -0.04331    0.02218    0.12279
 64 Cu   -0.01637    0.00411    0.06822
 65 Cu   -0.01222    0.01291    0.00846
 66 Cu   -0.01420   -0.01333    0.00081
 67 Cu   -0.01007    0.00516    0.04385
 68 Cu   -0.01706   -0.00230    0.04512
 69 Cu    0.00087   -0.00070    0.01077
 70 Cu    0.00733   -0.00305    0.01329
 71 Cu   -0.01814   -0.00072    0.03254
 72 Cu    0.00367    0.00033   -0.02211
 73 Cu    0.02028   -0.00046   -0.04707
 74 Cu    0.01974   -0.00093   -0.03017
 75 Cu   -0.00604   -0.00003   -0.02162
 76 Cu    0.01626   -0.01513   -0.01665
 77 Cu    0.02508    0.00674   -0.08555
 78 Cu    0.01762    0.00748   -0.05754
 79 Cu    0.02380    0.01329   -0.01691
 80 Cu    0.00952   -0.03383   -0.07332
 81 Cu    0.03311    0.00992   -0.07374
 82 Cu    0.04203    0.01999   -0.13998
 83 Cu    0.01169    0.02419   -0.08563
 84 Cu   -0.07700    0.00784   -0.07355
 85 Cu    0.06925    0.02039   -0.07617
 86 Cu   -0.03410    0.00693   -0.06779
 87 Cu   -0.08131   -0.00799   -0.05920
 88 Cu   -0.06853   -0.02154   -0.16227
 89 Cu   -0.16692    0.05899   -0.27157
 90 Cu   -0.16461    0.09023   -0.15410
 91 Cu   -0.06912    0.01251   -0.17280
 92 Cu   -0.04092    0.01855    0.08467
 93 Cu    0.02213    0.11708    0.29191
 94 Cu    0.08945   -0.01029    0.10331
 95 Cu   -0.00528   -0.00727    0.03379
 96 Cl    0.03827    0.03026    0.37176
 97 Cl    0.05885   -0.04765    0.32271
 98 Cl   -0.86498   -0.01661    2.20498
 99 Cl   -0.43147    0.04191    1.28833
100 Cl   -0.03653   -0.01672   -0.30752
101 Cl   -0.02264    0.05334   -0.36912
102 Cl   -0.05130   -0.09078   -0.29160
103 Cl   -0.07746   -0.15747   -0.27658

System changes: positions 

Initializing position-dependent things.

Density initialized from wave functions
      .----------------------------.  
     /|                            |  
    / |                            |  
   /  |                            |  
  /   |                            |  
 *    |                            |  
 |    |                            |  
 |    |                            |  
 |    |                            |  
 |    |                            |  
 |    |                            |  
 |    |          Cl            Cl  |  
 |    |                            |  
 |    |       Cl    Cu       Cl   Cu  
 |    |       Cu            Cu     |  
 |    | Cu    Cu       Cu          |  
 |    | Cu  Cu   Cu    Cu Cu    Cu |  
 |    |    Cu    Cu       Cu   Cu  |  
 |    Cu   Cu       Cu    Cu       |  
 |   Cu    Cu  Cu   Cu   Cu  Cu    |  
 |    |  Cu   Cu    Cu Cu    Cu   Cu  
 |    | Cu    Cu       Cu    Cu    |  
 | Cu | Cu    Cu Cu    Cu   Cu     |  
 |    | Cu  Cu   Cu    Cu Cu    Cu |  
 |    |    Cu    Cu       Cu   Cu  |  
 |    Cu   Cu       Cu    Cu       |  
 |   CCu   Cu Cu    Cu   Cu  Cu    |  
 |    |       Cu    Cu       Cu   Cu  
 |    | CCu   Cu       Cu    Cu    |  
 | Cu | Cu    Cu Cu   Cu    Cu     |  
 |    |     Cu   Cu       Cu    Cu |  
 |    |    Cu             Cu       |  
 |   Cu    Cl       Cu    Cl       |  
 |    |                            |  
 |    |  Cl            Cl          |  
 |    |                            |  
 |    |                            |  
 |    |                            |  
 |    |                            |  
 |    |                            |  
 |    |                            |  
 |    .----------------------------.  
 |   /                            /   
 |  /                            /    
 | /                            /     
 |/                            /      
 *----------------------------*       

Positions:
   0 Cu     3.239035   -0.040208   10.098196    ( 0.0000,  0.0000,  0.0000)
   1 Cu     1.318132    1.766229   10.638681    ( 0.0000,  0.0000,  0.0000)
   2 Cu     7.174634    1.803871   10.634444    ( 0.0000,  0.0000,  0.0000)
   3 Cu     9.053986   -0.058200   10.134118    ( 0.0000,  0.0000,  0.0000)
   4 Cu    11.347512   -0.074984   11.248179    ( 0.0000,  0.0000,  0.0000)
   5 Cu     9.628843    1.807067   11.779796    ( 0.0000,  0.0000,  0.0000)
   6 Cu     3.775612    1.788161   11.790195    ( 0.0000,  0.0000,  0.0000)
   7 Cu     5.514202   -0.071095   11.223227    ( 0.0000,  0.0000,  0.0000)
   8 Cu     7.829898   -0.071767   12.383697    ( 0.0000,  0.0000,  0.0000)
   9 Cu     6.095249    1.781224   12.938593    ( 0.0000,  0.0000,  0.0000)
  10 Cu     0.238850    1.778254   12.940836    ( 0.0000,  0.0000,  0.0000)
  11 Cu     1.994398   -0.072029   12.364048    ( 0.0000,  0.0000,  0.0000)
  12 Cu     4.324235   -0.073166   13.508671    ( 0.0000,  0.0000,  0.0000)
  13 Cu     2.580150    1.778592   14.108618    ( 0.0000,  0.0000,  0.0000)
  14 Cu     8.434234    1.781528   14.106469    ( 0.0000,  0.0000,  0.0000)
  15 Cu    10.161203   -0.070528   13.515093    ( 0.0000,  0.0000,  0.0000)
  16 Cu     0.829237   -0.071991   14.691247    ( 0.0000,  0.0000,  0.0000)
  17 Cu    10.786990    1.780374   15.249133    ( 0.0000,  0.0000,  0.0000)
  18 Cu     4.934681    1.777414   15.244063    ( 0.0000,  0.0000,  0.0000)
  19 Cu     6.680661   -0.072028   14.697645    ( 0.0000,  0.0000,  0.0000)
  20 Cu     9.029990   -0.069021   15.855785    ( 0.0000,  0.0000,  0.0000)
  21 Cu     7.284012    1.781354   16.439735    ( 0.0000,  0.0000,  0.0000)
  22 Cu     1.433427    1.778443   16.442723    ( 0.0000,  0.0000,  0.0000)
  23 Cu     3.179270   -0.071532   15.849739    ( 0.0000,  0.0000,  0.0000)
  24 Cu     5.525672   -0.071043   17.018699    ( 0.0000,  0.0000,  0.0000)
  25 Cu     3.780138    1.779060   17.599778    ( 0.0000,  0.0000,  0.0000)
  26 Cu     9.630595    1.781029   17.608397    ( 0.0000,  0.0000,  0.0000)
  27 Cu    11.374888   -0.070558   17.017280    ( 0.0000,  0.0000,  0.0000)
  28 Cu     2.024409   -0.072227   18.208390    ( 0.0000,  0.0000,  0.0000)
  29 Cu     0.276541    1.779323   18.765166    ( 0.0000,  0.0000,  0.0000)
  30 Cu     6.129621    1.781102   18.758964    ( 0.0000,  0.0000,  0.0000)
  31 Cu     7.876589   -0.069129   18.207497    ( 0.0000,  0.0000,  0.0000)
  32 Cu    10.227978   -0.069614   19.352181    ( 0.0000,  0.0000,  0.0000)
  33 Cu     8.485759    1.779223   19.944361    ( 0.0000,  0.0000,  0.0000)
  34 Cu     2.648960    1.780877   19.936801    ( 0.0000,  0.0000,  0.0000)
  35 Cu     4.378334   -0.071227   19.350338    ( 0.0000,  0.0000,  0.0000)
  36 Cu     6.712091   -0.073075   20.528129    ( 0.0000,  0.0000,  0.0000)
  37 Cu     4.985482    1.777251   21.066258    ( 0.0000,  0.0000,  0.0000)
  38 Cu    10.818411    1.779681   21.085003    ( 0.0000,  0.0000,  0.0000)
  39 Cu     0.863164   -0.070062   20.520507    ( 0.0000,  0.0000,  0.0000)
  40 Cu     3.177710   -0.078821   21.664647    ( 0.0000,  0.0000,  0.0000)
  41 Cu     1.463032    1.776179   22.203972    ( 0.0000,  0.0000,  0.0000)
  42 Cu     7.296075    1.779819   22.231575    ( 0.0000,  0.0000,  0.0000)
  43 Cu     9.028033   -0.060811   21.673600    ( 0.0000,  0.0000,  0.0000)
  44 Cu    11.440346   -0.043302   22.817098    ( 0.0000,  0.0000,  0.0000)
  45 Cu     9.566481    1.847942   23.335198    ( 0.0000,  0.0000,  0.0000)
  46 Cu     3.744734    1.835396   23.289562    ( 0.0000,  0.0000,  0.0000)
  47 Cu     5.635819   -0.092631   22.755863    ( 0.0000,  0.0000,  0.0000)
  48 Cu     3.185358    3.649076   10.103429    ( 0.0000,  0.0000,  0.0000)
  49 Cu     1.323194    5.501847   10.635049    ( 0.0000,  0.0000,  0.0000)
  50 Cu     7.170569    5.466582   10.639883    ( 0.0000,  0.0000,  0.0000)
  51 Cu     9.071435    3.667852   10.063640    ( 0.0000,  0.0000,  0.0000)
  52 Cu    11.345569    3.634223   11.211312    ( 0.0000,  0.0000,  0.0000)
  53 Cu     9.624484    5.472756   11.783188    ( 0.0000,  0.0000,  0.0000)
  54 Cu     3.774671    5.489615   11.773558    ( 0.0000,  0.0000,  0.0000)
  55 Cu     5.481812    3.629794   11.238119    ( 0.0000,  0.0000,  0.0000)
  56 Cu     7.848670    3.630748   12.355673    ( 0.0000,  0.0000,  0.0000)
  57 Cu     6.091130    5.476277   12.937282    ( 0.0000,  0.0000,  0.0000)
  58 Cu     0.243675    5.478956   12.935943    ( 0.0000,  0.0000,  0.0000)
  59 Cu     1.981477    3.630592   12.373432    ( 0.0000,  0.0000,  0.0000)
  60 Cu     4.310983    3.632791   13.519056    ( 0.0000,  0.0000,  0.0000)
  61 Cu     2.583025    5.481758   14.106297    ( 0.0000,  0.0000,  0.0000)
  62 Cu     8.432666    5.478702   14.108768    ( 0.0000,  0.0000,  0.0000)
  63 Cu    10.177075    3.630749   13.513147    ( 0.0000,  0.0000,  0.0000)
  64 Cu     0.829923    3.629860   14.694993    ( 0.0000,  0.0000,  0.0000)
  65 Cu    10.787053    5.479003   15.243539    ( 0.0000,  0.0000,  0.0000)
  66 Cu     4.935919    5.481891   15.247928    ( 0.0000,  0.0000,  0.0000)
  67 Cu     6.681651    3.629984   14.688993    ( 0.0000,  0.0000,  0.0000)
  68 Cu     9.030599    3.629379   15.850914    ( 0.0000,  0.0000,  0.0000)
  69 Cu     7.285315    5.478552   16.442975    ( 0.0000,  0.0000,  0.0000)
  70 Cu     1.432356    5.481412   16.439817    ( 0.0000,  0.0000,  0.0000)
  71 Cu     3.177762    3.631899   15.857065    ( 0.0000,  0.0000,  0.0000)
  72 Cu     5.523367    3.630361   17.015263    ( 0.0000,  0.0000,  0.0000)
  73 Cu     3.778958    5.482614   17.608094    ( 0.0000,  0.0000,  0.0000)
  74 Cu     9.631867    5.480649   17.599597    ( 0.0000,  0.0000,  0.0000)
  75 Cu    11.377708    3.630016   17.016524    ( 0.0000,  0.0000,  0.0000)
  76 Cu     2.023330    3.631825   18.211829    ( 0.0000,  0.0000,  0.0000)
  77 Cu     0.277772    5.481788   18.758823    ( 0.0000,  0.0000,  0.0000)
  78 Cu     6.128231    5.479492   18.765458    ( 0.0000,  0.0000,  0.0000)
[...]
  12 Cu     4.332939   -0.066463   13.511065    ( 0.0000,  0.0000,  0.0000)
  13 Cu     2.598422    1.783773   14.096011    ( 0.0000,  0.0000,  0.0000)
  14 Cu     8.450017    1.783367   14.096363    ( 0.0000,  0.0000,  0.0000)
  15 Cu    10.184912   -0.066482   13.511547    ( 0.0000,  0.0000,  0.0000)
  16 Cu     0.847776   -0.067172   14.674706    ( 0.0000,  0.0000,  0.0000)
  17 Cu    10.797616    1.782939   15.239359    ( 0.0000,  0.0000,  0.0000)
  18 Cu     4.946100    1.782825   15.238497    ( 0.0000,  0.0000,  0.0000)
  19 Cu     6.699121   -0.067047   14.674719    ( 0.0000,  0.0000,  0.0000)
  20 Cu     9.032047   -0.068164   15.852393    ( 0.0000,  0.0000,  0.0000)
  21 Cu     7.283025    1.781999   16.438789    ( 0.0000,  0.0000,  0.0000)
  22 Cu     1.431584    1.782049   16.438160    ( 0.0000,  0.0000,  0.0000)
  23 Cu     3.180585   -0.068110   15.851490    ( 0.0000,  0.0000,  0.0000)
  24 Cu     5.526497   -0.068896   17.006501    ( 0.0000,  0.0000,  0.0000)
  25 Cu     3.777910    1.781442   17.592823    ( 0.0000,  0.0000,  0.0000)
  26 Cu     9.629208    1.781477   17.593524    ( 0.0000,  0.0000,  0.0000)
  27 Cu    11.378120   -0.069091   17.006192    ( 0.0000,  0.0000,  0.0000)
  28 Cu     2.012752   -0.069734   18.205805    ( 0.0000,  0.0000,  0.0000)
  29 Cu     0.259455    1.780345   18.770527    ( 0.0000,  0.0000,  0.0000)
  30 Cu     6.111447    1.780475   18.771632    ( 0.0000,  0.0000,  0.0000)
  31 Cu     7.863644   -0.069792   18.207339    ( 0.0000,  0.0000,  0.0000)
  32 Cu    10.212562   -0.070519   19.349305    ( 0.0000,  0.0000,  0.0000)
  33 Cu     8.479220    1.779918   19.935189    ( 0.0000,  0.0000,  0.0000)
  34 Cu     2.627731    1.780515   19.934232    ( 0.0000,  0.0000,  0.0000)
  35 Cu     4.361310   -0.070042   19.349247    ( 0.0000,  0.0000,  0.0000)
  36 Cu     6.684484   -0.070812   20.535659    ( 0.0000,  0.0000,  0.0000)
  37 Cu     4.935218    1.778642   21.132036    ( 0.0000,  0.0000,  0.0000)
  38 Cu    10.787074    1.778083   21.132292    ( 0.0000,  0.0000,  0.0000)
  39 Cu     0.833064   -0.070910   20.534129    ( 0.0000,  0.0000,  0.0000)
  40 Cu     3.172817   -0.070519   21.718324    ( 0.0000,  0.0000,  0.0000)
  41 Cu     1.457498    1.780369   22.222991    ( 0.0000,  0.0000,  0.0000)
  42 Cu     7.311479    1.779584   22.224402    ( 0.0000,  0.0000,  0.0000)
  43 Cu     9.026127   -0.071341   21.720584    ( 0.0000,  0.0000,  0.0000)
  44 Cu    11.477553   -0.072052   22.851119    ( 0.0000,  0.0000,  0.0000)
  45 Cu     9.598469    1.773536   23.456955    ( 0.0000,  0.0000,  0.0000)
  46 Cu     3.741319    1.776244   23.455118    ( 0.0000,  0.0000,  0.0000)
  47 Cu     5.626104   -0.070308   22.849899    ( 0.0000,  0.0000,  0.0000)
  48 Cu     3.220241    3.633318    9.992073    ( 0.0000,  0.0000,  0.0000)
  49 Cu     1.341784    5.484920   10.597086    ( 0.0000,  0.0000,  0.0000)
  50 Cu     7.192702    5.486638   10.597743    ( 0.0000,  0.0000,  0.0000)
  51 Cu     9.070694    3.634338    9.992606    ( 0.0000,  0.0000,  0.0000)
  52 Cu    11.355988    3.636632   11.224308    ( 0.0000,  0.0000,  0.0000)
  53 Cu     9.640290    5.486980   11.727855    ( 0.0000,  0.0000,  0.0000)
  54 Cu     3.788824    5.486209   11.726778    ( 0.0000,  0.0000,  0.0000)
  55 Cu     5.505393    3.635821   11.223296    ( 0.0000,  0.0000,  0.0000)
  56 Cu     7.878562    3.635120   12.315593    ( 0.0000,  0.0000,  0.0000)
  57 Cu     6.128302    5.485690   12.911479    ( 0.0000,  0.0000,  0.0000)
  58 Cu     0.277051    5.485642   12.911987    ( 0.0000,  0.0000,  0.0000)
  59 Cu     2.026557    3.635417   12.316132    ( 0.0000,  0.0000,  0.0000)
  60 Cu     4.333371    3.634989   13.511083    ( 0.0000,  0.0000,  0.0000)
  61 Cu     2.598643    5.484808   14.095903    ( 0.0000,  0.0000,  0.0000)
  62 Cu     8.449860    5.485118   14.096282    ( 0.0000,  0.0000,  0.0000)
  63 Cu    10.184457    3.634978   13.512144    ( 0.0000,  0.0000,  0.0000)
  64 Cu     0.847342    3.634109   14.674850    ( 0.0000,  0.0000,  0.0000)
  65 Cu    10.797759    5.483893   15.238992    ( 0.0000,  0.0000,  0.0000)
  66 Cu     4.946201    5.484068   15.238649    ( 0.0000,  0.0000,  0.0000)
  67 Cu     6.699275    3.634000   14.674479    ( 0.0000,  0.0000,  0.0000)
  68 Cu     9.031601    3.632979   15.851949    ( 0.0000,  0.0000,  0.0000)
  69 Cu     7.282957    5.482955   16.438827    ( 0.0000,  0.0000,  0.0000)
  70 Cu     1.431682    5.482845   16.438135    ( 0.0000,  0.0000,  0.0000)
  71 Cu     3.180595    3.633037   15.851165    ( 0.0000,  0.0000,  0.0000)
  72 Cu     5.526294    3.631967   17.006368    ( 0.0000,  0.0000,  0.0000)
  73 Cu     3.778139    5.481881   17.592907    ( 0.0000,  0.0000,  0.0000)
  74 Cu     9.629101    5.481683   17.593435    ( 0.0000,  0.0000,  0.0000)
  75 Cu    11.378096    3.632070   17.006353    ( 0.0000,  0.0000,  0.0000)
  76 Cu     2.012607    3.631196   18.206029    ( 0.0000,  0.0000,  0.0000)
  77 Cu     0.259849    5.481318   18.770354    ( 0.0000,  0.0000,  0.0000)
  78 Cu     6.111045    5.481346   18.771597    ( 0.0000,  0.0000,  0.0000)
  79 Cu     7.863495    3.631205   18.207382    ( 0.0000,  0.0000,  0.0000)
  80 Cu    10.212974    3.630733   19.350247    ( 0.0000,  0.0000,  0.0000)
  81 Cu     8.478754    5.480853   19.935413    ( 0.0000,  0.0000,  0.0000)
  82 Cu     2.628172    5.480564   19.933746    ( 0.0000,  0.0000,  0.0000)
  83 Cu     4.361473    3.630581   19.350266    ( 0.0000,  0.0000,  0.0000)
  84 Cu     6.683638    3.630310   20.536251    ( 0.0000,  0.0000,  0.0000)
  85 Cu     4.934741    5.481657   21.132445    ( 0.0000,  0.0000,  0.0000)
  86 Cu    10.787488    5.481707   21.131711    ( 0.0000,  0.0000,  0.0000)
  87 Cu     0.832408    3.630005   20.534182    ( 0.0000,  0.0000,  0.0000)
  88 Cu     3.174425    3.629656   21.719955    ( 0.0000,  0.0000,  0.0000)
  89 Cu     1.459057    5.479246   22.222607    ( 0.0000,  0.0000,  0.0000)
  90 Cu     7.310121    5.480370   22.224504    ( 0.0000,  0.0000,  0.0000)
  91 Cu     9.026045    3.630330   21.720315    ( 0.0000,  0.0000,  0.0000)
  92 Cu    11.473489    3.630625   22.849143    ( 0.0000,  0.0000,  0.0000)
  93 Cu     9.596267    5.485759   23.456983    ( 0.0000,  0.0000,  0.0000)
  94 Cu     3.743253    5.483907   23.455080    ( 0.0000,  0.0000,  0.0000)
  95 Cu     5.620890    3.629142   22.849697    ( 0.0000,  0.0000,  0.0000)
  96 Cl     4.404623    3.631032   24.888886    ( 0.0000,  0.0000,  0.0000)
  97 Cl    10.258766    3.629586   24.888321    ( 0.0000,  0.0000,  0.0000)
  98 Cl     4.422744   -0.069131   24.890345    ( 0.0000,  0.0000,  0.0000)
  99 Cl    10.274811   -0.072400   24.900694    ( 0.0000,  0.0000,  0.0000)
 100 Cl     2.539514    1.785398    8.554649    ( 0.0000,  0.0000,  0.0000)
 101 Cl     8.397506    1.784065    8.555066    ( 0.0000,  0.0000,  0.0000)
 102 Cl     2.553535    5.484218    8.556381    ( 0.0000,  0.0000,  0.0000)
 103 Cl     8.401618    5.484266    8.556507    ( 0.0000,  0.0000,  0.0000)

Unit cell:
           periodic     x           y           z      points  spacing
  1. axis:    yes   11.703590    0.000000    0.000000    70     0.1672
  2. axis:    yes    0.000000    7.402000    0.000000    42     0.1762
  3. axis:    no     0.000000    0.000000   33.459128   192     0.1743

  Lengths:  11.703590   7.402000  33.459128
  Angles:   90.000000  90.000000  90.000000

Effective grid spacing dv^(1/3) = 0.1725

     iter     time        total  log10-change:
                         energy  eigst   dens
iter:   1 01:39:44 -7566.128550  -4.27
iter:   2 01:44:01 -7566.253480  -3.88  -3.05
iter:   3 01:47:58 -7566.075359c -4.44  -2.77
iter:   4 01:51:59 -7566.074958c -5.91  -3.84
iter:   5 01:56:07 -7566.074604c -5.68  -3.91
iter:   6 02:00:07 -7566.074450c -6.44  -4.18c
iter:   7 02:04:02 -7566.074429c -6.76  -4.35c
iter:   8 02:08:00 -7566.074425c -7.02  -4.52c
iter:   9 02:12:17 -7566.074418c -7.52c -4.61c

Converged after 9 iterations.

Dipole moment: (17.470502, 66.539633, 0.001412) |e|*Ang

Energy contributions relative to reference atoms: (reference = -4422498.971913)

Kinetic:       +742.616418
Potential:     -818.358757
External:        +0.000000
XC:            -7488.514827
Entropy (-ST):   -0.999039
Local:           -1.317731
--------------------------
Free energy:   -7566.573937
Extrapolated:  -7566.074418

Showing only first 2 kpts
 Kpt  Band  Eigenvalues  Occupancy
  0   554      0.20793    0.93057
  0   555      0.22789    0.83229
  0   556      0.38618    0.25537
  0   557      0.43169    0.16994

  1   554     -0.07222    1.86955
  1   555     -0.01169    1.77334
  1   556      0.05955    1.58653
  1   557      0.07243    1.54269


Fermi level: 0.19403

No gap

Forces in eV/Ang:
  0 Cu    0.00254   -0.00076   -0.00068
  1 Cu   -0.00048   -0.00229   -0.00270
  2 Cu    0.00024   -0.00133   -0.00146
  3 Cu    0.00107   -0.00024   -0.00014
  4 Cu   -0.00009   -0.00051   -0.00431
  5 Cu   -0.00053   -0.00222   -0.00992
  6 Cu   -0.00029   -0.00378   -0.00994
  7 Cu    0.00110   -0.00063   -0.00316
  8 Cu    0.00249   -0.00134   -0.00919
  9 Cu    0.00226   -0.00103   -0.00533
 10 Cu    0.00149   -0.00014   -0.00623
 11 Cu    0.00114   -0.00128   -0.00794
 12 Cu    0.00053   -0.00086   -0.00336
 13 Cu   -0.00164   -0.00135    0.00155
 14 Cu   -0.00074   -0.00012    0.00116
 15 Cu   -0.00019   -0.00077   -0.00237
 16 Cu   -0.00144   -0.00082   -0.00058
 17 Cu   -0.00051   -0.00090   -0.00130
 18 Cu   -0.00010    0.00029    0.00021
 19 Cu    0.00063   -0.00103   -0.00004
 20 Cu   -0.00046   -0.00025   -0.00038
 21 Cu    0.00118   -0.00063    0.00152
 22 Cu    0.00058   -0.00055    0.00210
 23 Cu    0.00058    0.00010    0.00133
 24 Cu    0.00027    0.00042    0.00007
 25 Cu    0.00113   -0.00006    0.00177
 26 Cu   -0.00035   -0.00039    0.00005
 27 Cu    0.00087    0.00036   -0.00152
 28 Cu    0.00182    0.00071    0.00211
 29 Cu    0.00330   -0.00036    0.00100
 30 Cu    0.00114    0.00049   -0.00109
 31 Cu    0.00250   -0.00018   -0.00174
 32 Cu    0.00419    0.00043   -0.00152
 33 Cu   -0.00001    0.00052    0.00357
 34 Cu   -0.00032   -0.00198    0.00216
 35 Cu    0.00359   -0.00049   -0.00137
 36 Cu    0.00008    0.00047    0.00071
 37 Cu   -0.00124    0.00263    0.00665
 38 Cu   -0.00324    0.00285    0.00578
 39 Cu   -0.00262    0.00019    0.00301
 40 Cu    0.00169   -0.00156    0.00950
 41 Cu   -0.00248   -0.00104    0.00151
 42 Cu   -0.00340    0.00201    0.00133
 43 Cu   -0.00164    0.00046    0.00337
 44 Cu   -0.00627   -0.00068    0.00511
 45 Cu   -0.00203    0.00448    0.00498
 46 Cu    0.00338    0.00121    0.00729
 47 Cu   -0.00568   -0.00062    0.00352
 48 Cu   -0.00078   -0.00024   -0.00382
 49 Cu   -0.00241   -0.00078   -0.00087
 50 Cu   -0.00056   -0.00222   -0.00256
 51 Cu    0.00116   -0.00089   -0.00414
 52 Cu    0.00145   -0.00218   -0.00391
 53 Cu    0.00099   -0.00458   -0.00742
 54 Cu    0.00028   -0.00261   -0.00770
 55 Cu    0.00105   -0.00188   -0.00471
 56 Cu    0.00204   -0.00106   -0.00798
 57 Cu    0.00320   -0.00009   -0.00575
 58 Cu    0.00109   -0.00112   -0.00597
 59 Cu    0.00172   -0.00122   -0.01069
 60 Cu   -0.00059   -0.00169   -0.00333
 61 Cu   -0.00222   -0.00011    0.00043
 62 Cu   -0.00151   -0.00111    0.00161
 63 Cu    0.00040   -0.00174   -0.00471
 64 Cu   -0.00054   -0.00136    0.00033
 65 Cu   -0.00090    0.00048    0.00012
 66 Cu   -0.00017   -0.00077    0.00052
 67 Cu   -0.00057   -0.00127    0.00092
 68 Cu    0.00105   -0.00008    0.00038
 69 Cu    0.00107    0.00010    0.00181
 70 Cu    0.00128    0.00036    0.00183
 71 Cu   -0.00020   -0.00061    0.00068
 72 Cu    0.00130    0.00009   -0.00041
 73 Cu   -0.00026    0.00050    0.00123
 74 Cu    0.00074    0.00064    0.00065
 75 Cu    0.00032   -0.00011   -0.00068
 76 Cu    0.00268   -0.00025    0.00079
 77 Cu    0.00202    0.00044    0.00109
 78 Cu    0.00243   -0.00026   -0.00066
 79 Cu    0.00211    0.00065    0.00010
 80 Cu    0.00308   -0.00047   -0.00181
 81 Cu    0.00108   -0.00028    0.00261
 82 Cu   -0.00114    0.00107    0.00386
 83 Cu    0.00381    0.00067   -0.00437
 84 Cu   -0.00091   -0.00075    0.00348
 85 Cu   -0.00066   -0.00263    0.00423
 86 Cu   -0.00405   -0.00258    0.00886
 87 Cu   -0.00223    0.00120    0.00548
 88 Cu   -0.00215    0.00052    0.00251
 89 Cu   -0.00366    0.00130    0.00128
 90 Cu   -0.00290   -0.00247    0.00210
 91 Cu    0.00139   -0.00102    0.00714
 92 Cu   -0.00276   -0.00089    0.00286
 93 Cu    0.00015   -0.00550    0.00472
 94 Cu    0.00172   -0.00135    0.00744
 95 Cu   -0.00060    0.00033    0.00632
 96 Cl    0.00223   -0.00122    0.00896
 97 Cl    0.00003    0.00042    0.00574
 98 Cl   -0.00544   -0.00263    0.01638
 99 Cl   -0.00025    0.00159   -0.02272
100 Cl    0.00541   -0.00040   -0.00113
101 Cl    0.00440    0.00137   -0.00073
102 Cl    0.00051    0.00289   -0.00257
103 Cl    0.00257    0.00268   -0.00348

Timing:                                      incl.     excl.
-------------------------------------------------------------------
Density initialized from wave functions:   349.871   349.870   0.4% |
 Symmetrize density:                         0.001     0.001   0.0% |
Forces:                                   2171.754  2171.754   2.4% ||
Hamiltonian:                               455.938     0.524   0.0% |
 Atomic:                                    12.373     1.069   0.0% |
  XC Correction:                            11.305    11.305   0.0% |
 Calculate atomic Hamiltonians:            164.170   164.170   0.2% |
 Communicate:                               17.319    17.319   0.0% |
 Initialize Hamiltonian:                     0.004     0.004   0.0% |
 Poisson:                                    0.277     0.277   0.0% |
 XC 3D grid:                               261.272    47.203   0.1% |
  VdW-DF integral:                         214.069     1.277   0.0% |
   Convolution:                             16.627    16.627   0.0% |
   FFT:                                      6.112     6.112   0.0% |
   gather:                                  86.007    86.007   0.1% |
   hmm1:                                     8.662     8.662   0.0% |
   hmm2:                                     8.390     8.390   0.0% |
   iFFT:                                     6.201     6.201   0.0% |
   potential:                               73.536     0.714   0.0% |
    collect:                                 9.421     9.421   0.0% |
    p1:                                     36.839    36.839   0.0% |
    p2:                                     12.289    12.289   0.0% |
    sum:                                    14.273    14.273   0.0% |
   splines:                                  7.258     7.258   0.0% |
LCAO initialization:                       998.497     0.639   0.0% |
 LCAO eigensolver:                          29.089     0.003   0.0% |
  Blacs Orbital Layouts:                     3.575     0.001   0.0% |
   General diagonalize:                      3.549     3.549   0.0% |
   Redistribute coefs:                       0.017     0.017   0.0% |
   Send coefs to domains:                    0.009     0.009   0.0% |
  Calculate projections:                     0.019     0.019   0.0% |
  Distribute overlap matrix:                24.934     0.002   0.0% |
   Scalapack redistribute:                   0.036     0.036   0.0% |
   blocked summation:                       24.896    24.896   0.0% |
  Potential matrix:                          0.223     0.223   0.0% |
  SparseAtomicCorrection:                    0.026     0.026   0.0% |
  Sum over cells:                            0.309     0.309   0.0% |
 LCAO to grid:                             961.877   961.877   1.1% |
 Set positions (LCAO WFS):                   6.891     0.023   0.0% |
  Basic WFS set positions:                   0.007     0.007   0.0% |
  Basis functions set positions:             0.001     0.001   0.0% |
  P tci:                                     0.000     0.000   0.0% |
  ST tci:                                    1.140     1.140   0.0% |
  Scalapack redistribute:                    0.086     0.086   0.0% |
  blocked summation:                         5.287     5.287   0.0% |
  mktci:                                     0.347     0.347   0.0% |
PWDescriptor:                                0.996     0.996   0.0% |
Redistribute:                                0.024     0.024   0.0% |
SCF-cycle:                               86723.514  3545.659   3.9% |-|
 Davidson:                               70857.915 23430.670  25.7% |---------|
  Apply H:                                4048.836  3976.920   4.4% |-|
   HMM T:                                   71.916    71.916   0.1% |
  Subspace diag:                         10604.178     0.073   0.0% |
   calc_h_matrix:                         6479.581  2191.920   2.4% ||
    Apply H:                              4287.661  4202.760   4.6% |-|
     HMM T:                                 84.901    84.901   0.1% |
   diagonalize:                            317.377   317.377   0.3% |
   rotate_psi:                            3807.146  3807.146   4.2% |-|
  calc. matrices:                        23289.504 15538.933  17.0% |------|
   Apply H:                               7750.571  7610.256   8.3% |--|
    HMM T:                                 140.315   140.315   0.2% |
  diagonalize:                            1963.965  1963.965   2.2% ||
  rotate_psi:                             7520.762  7520.762   8.2% |--|
 Density:                                 5083.073     0.021   0.0% |
  Atomic density matrices:                  12.873    12.873   0.0% |
  Mix:                                    2657.610  2657.610   2.9% ||
  Multipole moments:                         0.776     0.776   0.0% |
  Pseudo density:                         2411.792  2411.772   2.6% ||
   Symmetrize density:                       0.021     0.021   0.0% |
 Hamiltonian:                             6693.691     7.785   0.0% |
  Atomic:                                  190.748    20.330   0.0% |
   XC Correction:                          170.418   170.418   0.2% |
  Calculate atomic Hamiltonians:          2380.708  2380.708   2.6% ||
  Communicate:                             291.772   291.772   0.3% |
  Poisson:                                   4.039     4.039   0.0% |
  XC 3D grid:                             3818.639   617.996   0.7% |
   VdW-DF integral:                       3200.643    18.828   0.0% |
    Convolution:                           249.262   249.262   0.3% |
    FFT:                                    92.056    92.056   0.1% |
    gather:                               1406.894  1406.894   1.5% ||
    hmm1:                                  124.405   124.405   0.1% |
    hmm2:                                  121.745   121.745   0.1% |
    iFFT:                                   91.375    91.375   0.1% |
    potential:                            1096.073    10.840   0.0% |
     collect:                              142.125   142.125   0.2% |
     p1:                                   535.549   535.549   0.6% |
     p2:                                   182.862   182.862   0.2% |
     sum:                                  224.696   224.696   0.2% |
    splines:                                 0.003     0.003   0.0% |
 Orthonormalize:                           543.177     0.009   0.0% |
  calc_s_matrix:                            67.017    67.017   0.1% |
  inverse-cholesky:                         16.015    16.015   0.0% |
  projections:                             346.352   346.352   0.4% |
  rotate_psi_s:                            113.784   113.784   0.1% |
Set symmetry:                                0.002     0.002   0.0% |
Other:                                     592.359   592.359   0.6% |
-------------------------------------------------------------------
Total:                                             91292.956 100.0%

Memory usage: 2.49 GiB
Date: Fri Oct 21 02:13:53 2022
