
  ___ ___ ___ _ _ _  
 |   |   |_  | | | | 
 | | | | | . | | | | 
 |__ |  _|___|_____|  22.1.0
 |___|_|             

User:   thorkong@node435.cluster
Date:   Tue Jul 19 09:40:32 2022
Arch:   x86_64
Pid:    12725
Python: 3.10.5
gpaw:   /groups/kemi/thorkong/miniconda3/envs/gpaw22/lib/python3.10/site-packages/gpaw
_gpaw:  /groups/kemi/thorkong/miniconda3/envs/gpaw22/lib/python3.10/site-packages/
        _gpaw.cpython-310-x86_64-linux-gnu.so
ase:    /groups/kemi/thorkong/miniconda3/envs/gpaw22/lib/python3.10/site-packages/ase (version 3.22.1)
numpy:  /groups/kemi/thorkong/miniconda3/envs/gpaw22/lib/python3.10/site-packages/numpy (version 1.23.0)
scipy:  /groups/kemi/thorkong/miniconda3/envs/gpaw22/lib/python3.10/site-packages/scipy (version 1.8.1)
libxc:  5.2.3
units:  Angstrom and eV
cores: 32
OpenMP: True
OMP_NUM_THREADS: 1

Input parameters:
  basis: dzp
  kpts: [4 4 1]
  mode: {ecut: 600.0,
         name: pw}
  xc: BEEF-vdW

System changes: positions, numbers, cell, pbc, initial_charges, initial_magmoms 

Initialize ...

Cu-setup:
  name: Copper
  id: f1c4d45d90492f1bbfdcb091e8418fdf
  Z: 29.0
  valence: 11
  core: 18
  charge: 0.0
  file: /groups/kemi/thorkong/miniconda3/envs/gpaw22/share/gpaw/Cu.PBE.gz
  compensation charges: gauss, rc=0.33, lmax=2
  cutoffs: 2.06(filt), 2.43(core),
  valence states:
                energy  radius
    4s(1.00)    -4.609   1.164
    4p(0.00)    -0.698   1.164
    3d(10.00)    -5.039   1.058
    *s          22.603   1.164
    *p          26.513   1.164
    *d          22.172   1.058

  LCAO basis set for Cu:
    Name: dzp
    File: /groups/kemi/thorkong/miniconda3/envs/gpaw22/share/gpaw/Cu.dzp.basis.gz
    Number of radial functions: 5
    Number of spherical harmonics: 15
      l=0, rc=8.9688 Bohr: 4s-sz confined orbital
      l=2, rc=5.1719 Bohr: 3d-sz confined orbital
      l=0, rc=5.3281 Bohr: 4s-dz split-valence wave
      l=2, rc=3.1406 Bohr: 3d-dz split-valence wave
      l=1, rc=8.9688 Bohr: p-type Gaussian polarization

Cl-setup:
  name: Chlorine
  id: 726897f06f34e53cf8e33b5885a02604
  Z: 17.0
  valence: 7
  core: 10
  charge: 0.0
  file: /groups/kemi/thorkong/miniconda3/envs/gpaw22/share/gpaw/Cl.PBE.gz
  compensation charges: gauss, rc=0.25, lmax=2
  cutoffs: 1.40(filt), 1.49(core),
  valence states:
                energy  radius
    3s(2.00)   -20.689   0.794
    3p(5.00)    -8.594   0.794
    *s           6.523   0.794
    *p          18.617   0.794
    *d           0.000   0.794

  LCAO basis set for Cl:
    Name: dzp
    File: /groups/kemi/thorkong/miniconda3/envs/gpaw22/share/gpaw/Cl.dzp.basis.gz
    Number of radial functions: 5
    Number of spherical harmonics: 13
      l=0, rc=5.1719 Bohr: 3s-sz confined orbital
      l=1, rc=6.2656 Bohr: 3p-sz confined orbital
      l=0, rc=2.8281 Bohr: 3s-dz split-valence wave
      l=1, rc=3.5156 Bohr: 3p-dz split-valence wave
      l=2, rc=6.2656 Bohr: d-type Gaussian polarization

Reference energy: -4347169.275539

Spin-paired calculation

Convergence criteria:
 Maximum [total energy] change in last 3 cyles: 0.0005 eV / electron
 Maximum integral of absolute [dens]ity change: 0.0001 electrons / valence electron
 Maximum integral of absolute [eigenst]ate change: 4e-08 eV^2 / valence electron
 Maximum number of scf [iter]ations: 333
 (Square brackets indicate name in SCF output, whereas a 'c' in
 the SCF output indicates the quantity has converged.)

Symmetries present (total): 1

  ( 1  0  0)
  ( 0  1  0)
  ( 0  0  1)

16 k-points: 4 x 4 x 1 Monkhorst-Pack grid
8 k-points in the irreducible part of the Brillouin zone
       k-points in crystal coordinates                weights
   0:     0.12500000   -0.37500000    0.00000000          2/16
   1:     0.12500000   -0.12500000    0.00000000          2/16
   2:     0.12500000    0.12500000    0.00000000          2/16
   3:     0.12500000    0.37500000    0.00000000          2/16
   4:     0.37500000   -0.37500000    0.00000000          2/16
   5:     0.37500000   -0.12500000    0.00000000          2/16
   6:     0.37500000    0.12500000    0.00000000          2/16
   7:     0.37500000    0.37500000    0.00000000          2/16

Wave functions: Plane wave expansion
  Cutoff energy: 600.000 eV
  Number of coefficients (min, max): 96699, 96750
  Pulay-stress correction: 0.000000 eV/Ang^3 (de/decut=0.000000)
  Using FFTW library
  ScaLapack parameters: grid=2x2, blocksize=64
  Wavefunction extrapolation:
    Improved wavefunction reuse through dual PAW basis 

Occupation numbers: Fermi-Dirac: width=0.1000 eV
 

Eigensolver
   Davidson(niter=2) 

Densities:
  Coarse grid: 70*42*192 grid
  Fine grid: 140*84*384 grid
  Total Charge: 0.000000 

Density mixing:
  Method: separate
  Backend: pulay
  Linear mixing parameter: 0.05
  Mixing with 5 old densities
  Damping of long wave oscillations: 50 

Hamiltonian:
  XC and Coulomb potentials evaluated on a 140*84*384 grid
  Using the BEEF-vdW Exchange-Correlation functional
  External potential:
    NoExternalPotential
 

XC parameters: BEEF-vdW with 2 nearest neighbor stencil

Memory estimate:
  Process memory now: 340.81 MiB
  Calculator: 2098.58 MiB
    Density: 70.86 MiB
      Arrays: 27.99 MiB
      Localized functions: 32.10 MiB
      Mixer: 10.77 MiB
    Hamiltonian: 19.09 MiB
      Arrays: 18.30 MiB
      XC: 0.00 MiB
      Poisson: 0.00 MiB
      vbar: 0.78 MiB
    Wavefunctions: 2008.63 MiB
      Arrays psit_nG: 953.68 MiB
      Eigensolver: 1024.76 MiB
      Projections: 4.32 MiB
      Projectors: 3.69 MiB
      PW-descriptor: 22.18 MiB

Total number of cores used: 32
Parallelization over k-points: 8
Domain decomposition: 1 x 1 x 4
                      2 x 2 x 8 (xc only)

Number of atoms: 98
Number of atomic orbitals: 1466
Number of bands in calculation: 646
Number of valence electrons: 1070
Bands to converge: occupied

... initialized

Initializing position-dependent things.

Density initialized from atomic densities
Creating initial wave functions:
  646 bands from LCAO basis set

      .----------------------------.  
     /|                            |  
    / |                            |  
   /  |                            |  
  /   |                            |  
 *    |                            |  
 |    |                            |  
 |    |                            |  
 |    |                            |  
 |    |                            |  
 |    |                            |  
 |    |                            |  
 |    |                            |  
 |    |     Cl                    Cu  
 |    |       Cu            CCu    |  
 |    | Cu             Cu          |  
 |    |     Cu   Cu       Cu   CCu |  
 |    Cu   Cu       Cu    Cu       |  
 |    Cu   Cu Cu    Cu    Cu       |  
 |   Cu  Cu   Cu    Cu   Cu  Cu    |  
 |    |  Cu   Cu    Cu Cu    Cu    |  
 | Cu |  Cu   Cu  Cu   Cu    Cu    |  
 | Cu | Cu  Cu   Cu    Cu CuCu     |  
 |    | Cu  Cu   Cu    Cu Cu    Cu |  
 |    Cu   Cu    Cu       Cu   Cu  |  
 |    Cu   Cu       Cu    Cu Cu    |  
 |   Cu    Cu  Cu   Cu    Cu Cu    |  
 |    |  Cu   Cu    Cu Cu    Cu    |  
 |    |  Cu   Cu       Cu    Cu    |  
 | Cu | Cu  CuCu Cu    Cu          |  
 |    |     Cu   Cu       Cu    Cu |  
 |    |    Cu             Cu       |  
 |    Cu            Cu       Cu    |  
 |    |                            |  
 |    |                 CuCl       |  
 |    |                            |  
 |    |                            |  
 |    |                            |  
 |    |                            |  
 |    |                            |  
 |    |                            |  
 |    .----------------------------.  
 |   /                            /   
 |  /                            /    
 | /                            /     
 |/                            /      
 *----------------------------*       

Positions:
   0 Cu     3.156847   -0.014474   10.102425    ( 0.0000,  0.0000,  0.0000)
   1 Cu     1.498013    1.849828   10.707539    ( 0.0000,  0.0000,  0.0000)
   2 Cu     7.201199    1.852933   10.639107    ( 0.0000,  0.0000,  0.0000)
   3 Cu     9.063785    0.113634    9.980217    ( 0.0000,  0.0000,  0.0000)
   4 Cu    11.422603    0.029439   11.221201    ( 0.0000,  0.0000,  0.0000)
   5 Cu     9.665134    1.839021   11.833492    ( 0.0000,  0.0000,  0.0000)
   6 Cu     3.891649    1.852046   11.666990    ( 0.0000,  0.0000,  0.0000)
   7 Cu     5.565841   -0.050718   11.104311    ( 0.0000,  0.0000,  0.0000)
   8 Cu     7.905647   -0.028905   12.269318    ( 0.0000,  0.0000,  0.0000)
   9 Cu     6.137481    1.851966   12.899771    ( 0.0000,  0.0000,  0.0000)
  10 Cu     0.271850    1.849629   12.985154    ( 0.0000,  0.0000,  0.0000)
  11 Cu     2.038592   -0.012001   12.368714    ( 0.0000,  0.0000,  0.0000)
  12 Cu     4.386349    0.003080   13.486412    ( 0.0000,  0.0000,  0.0000)
  13 Cu     2.642809    1.855468   14.081468    ( 0.0000,  0.0000,  0.0000)
  14 Cu     8.444170    1.851497   14.084545    ( 0.0000,  0.0000,  0.0000)
  15 Cu    10.194968   -0.033245   13.512771    ( 0.0000,  0.0000,  0.0000)
  16 Cu     0.864569   -0.004409   14.695708    ( 0.0000,  0.0000,  0.0000)
  17 Cu    10.773226    1.856362   15.271221    ( 0.0000,  0.0000,  0.0000)
  18 Cu     4.978554    1.851279   15.239804    ( 0.0000,  0.0000,  0.0000)
  19 Cu     6.721973   -0.005952   14.643285    ( 0.0000,  0.0000,  0.0000)
  20 Cu     9.020597   -0.003727   15.861500    ( 0.0000,  0.0000,  0.0000)
  21 Cu     7.271055    1.849446   16.449513    ( 0.0000,  0.0000,  0.0000)
  22 Cu     1.441769    1.853793   16.440567    ( 0.0000,  0.0000,  0.0000)
  23 Cu     3.212559    0.003848   15.845084    ( 0.0000,  0.0000,  0.0000)
  24 Cu     5.542079   -0.004158   17.016578    ( 0.0000,  0.0000,  0.0000)
  25 Cu     3.801169    1.845893   17.606077    ( 0.0000,  0.0000,  0.0000)
  26 Cu     9.598192    1.857520   17.615759    ( 0.0000,  0.0000,  0.0000)
  27 Cu    11.374758    0.003296   17.013222    ( 0.0000,  0.0000,  0.0000)
  28 Cu     2.022469    0.005193   18.194318    ( 0.0000,  0.0000,  0.0000)
  29 Cu     0.252614    1.845982   18.773561    ( 0.0000,  0.0000,  0.0000)
  30 Cu     6.087756    1.839816   18.829495    ( 0.0000,  0.0000,  0.0000)
  31 Cu     7.846040   -0.004632   18.218068    ( 0.0000,  0.0000,  0.0000)
  32 Cu    10.183217    0.001964   19.358506    ( 0.0000,  0.0000,  0.0000)
  33 Cu     8.426250    1.853632   19.977847    ( 0.0000,  0.0000,  0.0000)
  34 Cu     2.626009    1.819342   19.957912    ( 0.0000,  0.0000,  0.0000)
  35 Cu     4.354962    0.002131   19.385190    ( 0.0000,  0.0000,  0.0000)
  36 Cu     6.694496    0.005294   20.587846    ( 0.0000,  0.0000,  0.0000)
  37 Cu     4.907478    1.826119   21.202580    ( 0.0000,  0.0000,  0.0000)
  38 Cu    10.773372    1.837748   21.103512    ( 0.0000,  0.0000,  0.0000)
  39 Cu     0.862109    0.001071   20.526371    ( 0.0000,  0.0000,  0.0000)
  40 Cu     3.112039    0.005133   21.898852    ( 0.0000,  0.0000,  0.0000)
  41 Cu     1.392792    1.882466   22.249462    ( 0.0000,  0.0000,  0.0000)
  42 Cu     7.253861    1.798289   22.364406    ( 0.0000,  0.0000,  0.0000)
  43 Cu     9.005045   -0.000248   21.757700    ( 0.0000,  0.0000,  0.0000)
  44 Cu    11.410795   -0.000803   22.809795    ( 0.0000,  0.0000,  0.0000)
  45 Cu     9.659833    1.835977   23.369200    ( 0.0000,  0.0000,  0.0000)
  46 Cu     3.726435    1.995935   23.478946    ( 0.0000,  0.0000,  0.0000)
  47 Cu     5.433682    0.009292   22.917203    ( 0.0000,  0.0000,  0.0000)
  48 Cu     3.155621    3.715274   10.099058    ( 0.0000,  0.0000,  0.0000)
  49 Cu     1.404704    5.552142   10.658432    ( 0.0000,  0.0000,  0.0000)
  50 Cu     7.382959    5.542283   10.551810    ( 0.0000,  0.0000,  0.0000)
  51 Cu     9.089683    3.555711    9.990355    ( 0.0000,  0.0000,  0.0000)
  52 Cu    11.423204    3.668786   11.219166    ( 0.0000,  0.0000,  0.0000)
  53 Cu     9.704159    5.546371   11.569835    ( 0.0000,  0.0000,  0.0000)
  54 Cu     3.811192    5.551471   11.709964    ( 0.0000,  0.0000,  0.0000)
  55 Cu     5.562522    3.752773   11.103994    ( 0.0000,  0.0000,  0.0000)
  56 Cu     7.908839    3.725072   12.266363    ( 0.0000,  0.0000,  0.0000)
  57 Cu     6.122218    5.546077   12.880470    ( 0.0000,  0.0000,  0.0000)
  58 Cu     0.250704    5.550303   12.941857    ( 0.0000,  0.0000,  0.0000)
  59 Cu     2.042593    3.713772   12.364489    ( 0.0000,  0.0000,  0.0000)
  60 Cu     4.390467    3.697888   13.489958    ( 0.0000,  0.0000,  0.0000)
  61 Cu     2.633645    5.549307   14.109273    ( 0.0000,  0.0000,  0.0000)
  62 Cu     8.461159    5.549228   14.083684    ( 0.0000,  0.0000,  0.0000)
  63 Cu    10.190153    3.732001   13.510638    ( 0.0000,  0.0000,  0.0000)
  64 Cu     0.860247    3.705394   14.694463    ( 0.0000,  0.0000,  0.0000)
  65 Cu    10.793800    5.546001   15.273714    ( 0.0000,  0.0000,  0.0000)
  66 Cu     4.970269    5.555896   15.249824    ( 0.0000,  0.0000,  0.0000)
  67 Cu     6.728123    3.711591   14.639018    ( 0.0000,  0.0000,  0.0000)
  68 Cu     9.014665    3.705487   15.861764    ( 0.0000,  0.0000,  0.0000)
  69 Cu     7.273563    5.555396   16.451426    ( 0.0000,  0.0000,  0.0000)
  70 Cu     1.441758    5.548073   16.454277    ( 0.0000,  0.0000,  0.0000)
  71 Cu     3.218269    3.693848   15.851734    ( 0.0000,  0.0000,  0.0000)
  72 Cu     5.544532    3.702043   17.018567    ( 0.0000,  0.0000,  0.0000)
  73 Cu     3.795371    5.555063   17.606320    ( 0.0000,  0.0000,  0.0000)
  74 Cu     9.603801    5.547469   17.622666    ( 0.0000,  0.0000,  0.0000)
  75 Cu    11.374756    3.697465   17.026876    ( 0.0000,  0.0000,  0.0000)
  76 Cu     2.042777    3.695043   18.196542    ( 0.0000,  0.0000,  0.0000)
  77 Cu     0.248383    5.555645   18.772389    ( 0.0000,  0.0000,  0.0000)
  78 Cu     6.094058    5.557330   18.825229    ( 0.0000,  0.0000,  0.0000)
  79 Cu     7.837592    3.700148   18.227952    ( 0.0000,  0.0000,  0.0000)
  80 Cu    10.173934    3.695963   19.386198    ( 0.0000,  0.0000,  0.0000)
  81 Cu     8.430265    5.548142   19.981479    ( 0.0000,  0.0000,  0.0000)
  82 Cu     2.621699    5.584553   19.956069    ( 0.0000,  0.0000,  0.0000)
  83 Cu     4.371695    3.699954   19.383892    ( 0.0000,  0.0000,  0.0000)
  84 Cu     6.679033    3.699451   20.568727    ( 0.0000,  0.0000,  0.0000)
  85 Cu     4.910924    5.580452   21.199808    ( 0.0000,  0.0000,  0.0000)
  86 Cu    10.777419    5.563172   21.099222    ( 0.0000,  0.0000,  0.0000)
  87 Cu     0.841109    3.701658   20.483385    ( 0.0000,  0.0000,  0.0000)
  88 Cu     3.151098    3.712190   21.635653    ( 0.0000,  0.0000,  0.0000)
  89 Cu     1.393345    5.521977   22.247215    ( 0.0000,  0.0000,  0.0000)
  90 Cu     7.250374    5.602390   22.364464    ( 0.0000,  0.0000,  0.0000)
  91 Cu     8.924315    3.699388   21.801022    ( 0.0000,  0.0000,  0.0000)
  92 Cu    11.317793    3.701457   22.760977    ( 0.0000,  0.0000,  0.0000)
  93 Cu     9.658739    5.565855   23.365819    ( 0.0000,  0.0000,  0.0000)
  94 Cu     3.752109    5.438291   23.488889    ( 0.0000,  0.0000,  0.0000)
  95 Cu     5.615872    3.698367   22.830279    ( 0.0000,  0.0000,  0.0000)
  96 Cl     3.251031    3.710309   25.014574    ( 0.0000,  0.0000,  0.0000)
  97 Cl     9.561547    1.841484    8.453393    ( 0.0000,  0.0000,  0.0000)

Unit cell:
           periodic     x           y           z      points  spacing
  1. axis:    yes   11.703590    0.000000    0.000000    70     0.1672
  2. axis:    yes    0.000000    7.402000    0.000000    42     0.1762
  3. axis:    no     0.000000    0.000000   33.459128   192     0.1743

  Lengths:  11.703590   7.402000  33.459128
  Angles:   90.000000  90.000000  90.000000

Effective grid spacing dv^(1/3) = 0.1725

     iter     time        total  log10-change:
                         energy  eigst   dens
iter:   1 10:00:31 -7405.830805
iter:   2 10:04:06 -7403.512280  -0.92  -1.17
iter:   3 10:07:44 -7383.786908  -0.99  -1.22
iter:   4 10:11:20 -7356.735223  -1.29  -1.29
iter:   5 10:14:58 -7367.249782  -1.54  -1.46
iter:   6 10:18:34 -7354.632884  -1.86  -1.50
iter:   7 10:22:13 -7350.764897  -1.69  -1.60
iter:   8 10:25:51 -7346.485651  -2.73  -1.72
iter:   9 10:29:29 -7343.361858  -2.22  -1.74
iter:  10 10:33:07 -7353.583294  -1.63  -1.82
iter:  11 10:36:45 -7344.919529  -2.51  -1.78
iter:  12 10:40:23 -7342.266425  -2.43  -2.00
iter:  13 10:44:03 -7342.006252  -2.61  -2.14
iter:  14 10:47:44 -7341.962188c -2.80  -2.29
iter:  15 10:51:24 -7341.578656c -3.17  -2.38
iter:  16 10:55:04 -7341.334465  -3.47  -2.76
iter:  17 10:58:44 -7341.263355c -3.93  -2.78
iter:  18 11:02:23 -7341.196820c -3.51  -2.83
iter:  19 11:06:03 -7341.198990c -4.17  -3.06
iter:  20 11:09:42 -7341.185819c -4.62  -3.09
iter:  21 11:13:21 -7341.181373c -4.45  -3.13
iter:  22 11:17:01 -7341.174131c -5.25  -3.23
iter:  23 11:20:39 -7341.172924c -5.11  -3.34
iter:  24 11:24:18 -7341.170772c -5.37  -3.49
iter:  25 11:27:57 -7341.170273c -5.68  -3.64
iter:  26 11:31:37 -7341.169919c -6.23  -3.76
iter:  27 11:35:19 -7341.169852c -6.10  -3.82
iter:  28 11:39:00 -7341.169585c -6.16  -3.95
iter:  29 11:42:41 -7341.169460c -6.83  -4.19c
iter:  30 11:46:20 -7341.169442c -7.21  -4.34c
iter:  31 11:50:03 -7341.169377c -6.84  -4.43c
iter:  32 11:53:45 -7341.169400c -7.50c -4.67c

Converged after 32 iterations.

Dipole moment: (19.465848, -0.290449, -0.000310) |e|*Ang

Energy contributions relative to reference atoms: (reference = -4347169.275539)

Kinetic:       +678.772756
Potential:     -760.674262
External:        +0.000000
XC:            -7257.439606
Entropy (-ST):   -0.936994
Local:           -1.359791
--------------------------
Free energy:   -7341.637897
Extrapolated:  -7341.169400

Showing only first 2 kpts
 Kpt  Band  Eigenvalues  Occupancy
  0   533      0.25465    0.82427
  0   534      0.35076    0.42291
  0   535      0.36150    0.38819
  0   536      0.38959    0.30776

  1   533     -0.07406    1.89881
  1   534     -0.03685    1.85647
  1   535      0.05914    1.66402
  1   536      0.08811    1.57511


Fermi level: 0.21914

No gap

Forces in eV/Ang:
  0 Cu   -0.01122   -0.01317    0.03058
  1 Cu   -0.07288   -0.00347   -0.06138
  2 Cu    0.03856   -0.01483   -0.01551
  3 Cu    0.01978    0.02368    0.02190
  4 Cu    0.00054   -0.00954   -0.04566
  5 Cu   -0.01338    0.02390   -0.06951
  6 Cu   -0.05113   -0.01065    0.01916
  7 Cu    0.01955   -0.02222    0.03260
  8 Cu   -0.02127    0.00630    0.01169
  9 Cu   -0.02658   -0.00915    0.00188
 10 Cu    0.00084    0.00529   -0.05284
 11 Cu    0.00696    0.02837   -0.00937
 12 Cu   -0.02905   -0.01110    0.00996
 13 Cu   -0.02133   -0.01936    0.02615
 14 Cu    0.01459   -0.01755    0.09800
 15 Cu    0.02119    0.00943    0.03978
 16 Cu   -0.01647    0.00283    0.00219
 17 Cu    0.04119   -0.01420    0.00238
 18 Cu   -0.00880   -0.00535    0.02479
 19 Cu    0.00854   -0.01769    0.01250
 20 Cu    0.04831    0.01216    0.00854
 21 Cu    0.02626    0.00327   -0.00629
 22 Cu    0.00922   -0.00915   -0.02823
 23 Cu   -0.02575    0.00463    0.01517
 24 Cu   -0.01725    0.02686    0.00195
 25 Cu   -0.05821    0.01038   -0.02932
 26 Cu    0.03763   -0.02164    0.02671
 27 Cu   -0.02564   -0.00440    0.01855
 28 Cu   -0.00039   -0.01026   -0.02637
 29 Cu   -0.00866    0.00324   -0.01553
 30 Cu    0.03452    0.00519   -0.05823
 31 Cu    0.00283    0.02616    0.01082
 32 Cu    0.02612   -0.00004    0.02342
 33 Cu    0.03994   -0.01843   -0.00379
 34 Cu   -0.03889    0.02616   -0.02110
 35 Cu    0.01978   -0.02607    0.00278
 36 Cu   -0.03321   -0.03237   -0.04202
 37 Cu    0.01593    0.02608   -0.01766
 38 Cu    0.01139    0.03000   -0.00924
 39 Cu   -0.00729    0.00224   -0.03560
 40 Cu    0.02711   -0.01025   -0.04690
 41 Cu   -0.01122    0.00525    0.02879
 42 Cu   -0.01636   -0.00487   -0.02151
 43 Cu   -0.00863   -0.00317    0.00187
 44 Cu   -0.04118    0.00066    0.02541
 45 Cu    0.01193   -0.01557   -0.03009
 46 Cu    0.01913   -0.03990   -0.00440
 47 Cu    0.01892   -0.01078   -0.05313
 48 Cu   -0.01089    0.01597    0.02879
 49 Cu    0.04447   -0.00061   -0.02367
 50 Cu   -0.02369    0.01062    0.05869
 51 Cu   -0.01932    0.03963    0.00366
 52 Cu    0.01226   -0.00454   -0.02496
 53 Cu   -0.02642    0.01016    0.05149
 54 Cu    0.00996    0.00369   -0.00275
 55 Cu    0.01456    0.00534    0.02280
 56 Cu   -0.01697   -0.02361    0.01706
 57 Cu    0.03242    0.03239    0.03930
 58 Cu    0.00599   -0.00253    0.03500
 59 Cu   -0.01163   -0.03057    0.00880
 60 Cu   -0.04217    0.01820    0.00319
 61 Cu   -0.02793    0.00050   -0.02376
 62 Cu   -0.01861    0.02619   -0.00456
 63 Cu    0.03983   -0.02590    0.02058
 64 Cu    0.00877   -0.00328    0.01524
 65 Cu    0.00076    0.01059    0.02768
 66 Cu   -0.00347   -0.02538   -0.00984
 67 Cu   -0.03347   -0.00557    0.05723
 68 Cu    0.05942   -0.01067    0.03208
 69 Cu    0.01986   -0.02588    0.00117
 70 Cu    0.02500    0.00420   -0.01583
 71 Cu   -0.03920    0.02162   -0.02479
 72 Cu   -0.02382   -0.00415    0.00921
 73 Cu   -0.04768   -0.01192   -0.00551
 74 Cu    0.02537   -0.00454   -0.01470
 75 Cu   -0.01017    0.00941    0.03095
 76 Cu   -0.04082    0.01415   -0.00035
 77 Cu    0.01659   -0.00263   -0.00243
 78 Cu   -0.00790    0.01783   -0.01338
 79 Cu    0.00824    0.00486   -0.02285
 80 Cu    0.01980    0.01888   -0.02608
 81 Cu    0.02729    0.01117   -0.01029
 82 Cu   -0.02210   -0.00930   -0.04099
 83 Cu   -0.01297    0.01706   -0.09703
 84 Cu    0.02487    0.00883   -0.00465
 85 Cu    0.01960   -0.00845   -0.01246
 86 Cu   -0.00704   -0.02801    0.00930
 87 Cu   -0.00162   -0.00516    0.05112
 88 Cu    0.01471   -0.02312    0.07129
 89 Cu    0.00097    0.00893    0.04977
 90 Cu   -0.02109    0.02205   -0.03173
 91 Cu    0.05243    0.01044   -0.01982
 92 Cu    0.07597    0.00361    0.06178
 93 Cu    0.01226    0.01284   -0.03140
 94 Cu   -0.01855   -0.02520   -0.02232
 95 Cu   -0.04232    0.01518    0.01535
 96 Cl    0.11170    0.01770    0.00608
 97 Cl   -0.09864   -0.01678   -0.03381

System changes: positions 

Initializing position-dependent things.

Density initialized from wave functions
      .----------------------------.  
     /|                            |  
    / |                            |  
   /  |                            |  
  /   |                            |  
 *    |                            |  
 |    |                            |  
 |    |                            |  
 |    |                            |  
 |    |                            |  
 |    |                            |  
 |    |                            |  
 |    |                            |  
 |    |     Cl                    Cu  
 |    |       Cu            CCu    |  
 |    | Cu             Cu          |  
 |    |     Cu   Cu       Cu   CCu |  
 |    Cu   Cu    Cu Cu    Cu       |  
 |    Cu   Cu Cu    Cu    Cu       |  
 |   Cu  Cu   Cu    Cu   Cu  Cu    |  
 |    |  Cu   Cu    Cu Cu    Cu    |  
 | Cu |  Cu   Cu  Cu   Cu    Cu    |  
 | Cu | Cu       Cu    Cu CuCu     |  
 |    | Cu  Cu   Cu    Cu Cu    Cu |  
 |    Cu   Cu    Cu       Cu   Cu  |  
 |    Cu   Cu       Cu    Cu Cu    |  
 |   Cu    Cu  Cu   Cu    Cu Cu    |  
 |    |  Cu   Cu    Cu Cu    Cu    |  
 |    |  Cu   Cu       Cu    Cu    |  
 | Cu | Cu  CuCu Cu    Cu          |  
 |    |     Cu   Cu       Cu    Cu |  
 |    |    Cu             Cu       |  
 |    Cu            Cu       Cu    |  
 |    |                            |  
 |    |                 CuCl       |  
 |    |                            |  
 |    |                            |  
 |    |                            |  
 |    |                            |  
 |    |                            |  
 |    |                            |  
 |    .----------------------------.  
 |   /                            /   
 |  /                            /    
 | /                            /     
 |/                            /      
 *----------------------------*       

Positions:
   0 Cu     3.155725   -0.015791   10.105483    ( 0.0000,  0.0000,  0.0000)
   1 Cu     1.490725    1.849481   10.701401    ( 0.0000,  0.0000,  0.0000)
   2 Cu     7.205055    1.851450   10.637556    ( 0.0000,  0.0000,  0.0000)
   3 Cu     9.065763    0.116002    9.982407    ( 0.0000,  0.0000,  0.0000)
   4 Cu    11.422657    0.028485   11.216635    ( 0.0000,  0.0000,  0.0000)
   5 Cu     9.663796    1.841411   11.826541    ( 0.0000,  0.0000,  0.0000)
   6 Cu     3.886536    1.850981   11.668906    ( 0.0000,  0.0000,  0.0000)
   7 Cu     5.567796   -0.052940   11.107571    ( 0.0000,  0.0000,  0.0000)
   8 Cu     7.903520   -0.028275   12.270487    ( 0.0000,  0.0000,  0.0000)
   9 Cu     6.134823    1.851051   12.899959    ( 0.0000,  0.0000,  0.0000)
  10 Cu     0.271934    1.850158   12.979870    ( 0.0000,  0.0000,  0.0000)
  11 Cu     2.039288   -0.009164   12.367777    ( 0.0000,  0.0000,  0.0000)
  12 Cu     4.383444    0.001970   13.487408    ( 0.0000,  0.0000,  0.0000)
  13 Cu     2.640676    1.853532   14.084083    ( 0.0000,  0.0000,  0.0000)
  14 Cu     8.445629    1.849742   14.094345    ( 0.0000,  0.0000,  0.0000)
  15 Cu    10.197087   -0.032302   13.516749    ( 0.0000,  0.0000,  0.0000)
  16 Cu     0.862922   -0.004126   14.695927    ( 0.0000,  0.0000,  0.0000)
  17 Cu    10.777345    1.854942   15.271459    ( 0.0000,  0.0000,  0.0000)
  18 Cu     4.977674    1.850744   15.242283    ( 0.0000,  0.0000,  0.0000)
  19 Cu     6.722827   -0.007721   14.644535    ( 0.0000,  0.0000,  0.0000)
  20 Cu     9.025428   -0.002511   15.862354    ( 0.0000,  0.0000,  0.0000)
  21 Cu     7.273681    1.849773   16.448884    ( 0.0000,  0.0000,  0.0000)
  22 Cu     1.442691    1.852878   16.437744    ( 0.0000,  0.0000,  0.0000)
  23 Cu     3.209984    0.004311   15.846601    ( 0.0000,  0.0000,  0.0000)
  24 Cu     5.540354   -0.001472   17.016773    ( 0.0000,  0.0000,  0.0000)
  25 Cu     3.795348    1.846931   17.603145    ( 0.0000,  0.0000,  0.0000)
  26 Cu     9.601955    1.855356   17.618430    ( 0.0000,  0.0000,  0.0000)
  27 Cu    11.372194    0.002856   17.015077    ( 0.0000,  0.0000,  0.0000)
  28 Cu     2.022430    0.004167   18.191681    ( 0.0000,  0.0000,  0.0000)
  29 Cu     0.251748    1.846306   18.772008    ( 0.0000,  0.0000,  0.0000)
  30 Cu     6.091208    1.840335   18.823672    ( 0.0000,  0.0000,  0.0000)
  31 Cu     7.846323   -0.002016   18.219150    ( 0.0000,  0.0000,  0.0000)
  32 Cu    10.185829    0.001960   19.360848    ( 0.0000,  0.0000,  0.0000)
  33 Cu     8.430244    1.851789   19.977468    ( 0.0000,  0.0000,  0.0000)
  34 Cu     2.622120    1.821958   19.955802    ( 0.0000,  0.0000,  0.0000)
  35 Cu     4.356940   -0.000476   19.385468    ( 0.0000,  0.0000,  0.0000)
  36 Cu     6.691175    0.002057   20.583644    ( 0.0000,  0.0000,  0.0000)
  37 Cu     4.909071    1.828727   21.200814    ( 0.0000,  0.0000,  0.0000)
  38 Cu    10.774511    1.840748   21.102588    ( 0.0000,  0.0000,  0.0000)
  39 Cu     0.861380    0.001295   20.522811    ( 0.0000,  0.0000,  0.0000)
  40 Cu     3.114750    0.004108   21.894162    ( 0.0000,  0.0000,  0.0000)
  41 Cu     1.391670    1.882991   22.252341    ( 0.0000,  0.0000,  0.0000)
  42 Cu     7.252225    1.797802   22.362255    ( 0.0000,  0.0000,  0.0000)
  43 Cu     9.004182   -0.000565   21.757887    ( 0.0000,  0.0000,  0.0000)
  44 Cu    11.406677   -0.000737   22.812336    ( 0.0000,  0.0000,  0.0000)
  45 Cu     9.661026    1.834420   23.366191    ( 0.0000,  0.0000,  0.0000)
  46 Cu     3.728348    1.991945   23.478506    ( 0.0000,  0.0000,  0.0000)
  47 Cu     5.435574    0.008214   22.911890    ( 0.0000,  0.0000,  0.0000)
  48 Cu     3.154532    3.716871   10.101937    ( 0.0000,  0.0000,  0.0000)
  49 Cu     1.409151    5.552081   10.656065    ( 0.0000,  0.0000,  0.0000)
  50 Cu     7.380590    5.543345   10.557679    ( 0.0000,  0.0000,  0.0000)
  51 Cu     9.087751    3.559674    9.990721    ( 0.0000,  0.0000,  0.0000)
  52 Cu    11.424430    3.668332   11.216670    ( 0.0000,  0.0000,  0.0000)
  53 Cu     9.701517    5.547387   11.574984    ( 0.0000,  0.0000,  0.0000)
  54 Cu     3.812188    5.551840   11.709689    ( 0.0000,  0.0000,  0.0000)
  55 Cu     5.563978    3.753307   11.106274    ( 0.0000,  0.0000,  0.0000)
  56 Cu     7.907142    3.722711   12.268069    ( 0.0000,  0.0000,  0.0000)
  57 Cu     6.125460    5.549316   12.884400    ( 0.0000,  0.0000,  0.0000)
  58 Cu     0.251303    5.550050   12.945357    ( 0.0000,  0.0000,  0.0000)
  59 Cu     2.041430    3.710715   12.365369    ( 0.0000,  0.0000,  0.0000)
  60 Cu     4.386250    3.699708   13.490277    ( 0.0000,  0.0000,  0.0000)
  61 Cu     2.630852    5.549357   14.106897    ( 0.0000,  0.0000,  0.0000)
  62 Cu     8.459298    5.551847   14.083228    ( 0.0000,  0.0000,  0.0000)
  63 Cu    10.194136    3.729411   13.512696    ( 0.0000,  0.0000,  0.0000)
  64 Cu     0.861124    3.705066   14.695987    ( 0.0000,  0.0000,  0.0000)
  65 Cu    10.793876    5.547060   15.276482    ( 0.0000,  0.0000,  0.0000)
  66 Cu     4.969922    5.553358   15.248840    ( 0.0000,  0.0000,  0.0000)
  67 Cu     6.724776    3.711034   14.644741    ( 0.0000,  0.0000,  0.0000)
  68 Cu     9.020607    3.704420   15.864972    ( 0.0000,  0.0000,  0.0000)
  69 Cu     7.275549    5.552808   16.451543    ( 0.0000,  0.0000,  0.0000)
  70 Cu     1.444258    5.548493   16.452694    ( 0.0000,  0.0000,  0.0000)
  71 Cu     3.214349    3.696010   15.849255    ( 0.0000,  0.0000,  0.0000)
  72 Cu     5.542150    3.701628   17.019488    ( 0.0000,  0.0000,  0.0000)
  73 Cu     3.790603    5.553871   17.605769    ( 0.0000,  0.0000,  0.0000)
  74 Cu     9.606338    5.547015   17.621196    ( 0.0000,  0.0000,  0.0000)
  75 Cu    11.373739    3.698406   17.029971    ( 0.0000,  0.0000,  0.0000)
  76 Cu     2.038695    3.696458   18.196507    ( 0.0000,  0.0000,  0.0000)
  77 Cu     0.250042    5.555382   18.772146    ( 0.0000,  0.0000,  0.0000)
  78 Cu     6.093268    5.559113   18.823891    ( 0.0000,  0.0000,  0.0000)
  79 Cu     7.838416    3.700634   18.225667    ( 0.0000,  0.0000,  0.0000)
  80 Cu    10.175914    3.697851   19.383590    ( 0.0000,  0.0000,  0.0000)
  81 Cu     8.432994    5.549259   19.980450    ( 0.0000,  0.0000,  0.0000)
  82 Cu     2.619489    5.583623   19.951970    ( 0.0000,  0.0000,  0.0000)
  83 Cu     4.370398    3.701660   19.374189    ( 0.0000,  0.0000,  0.0000)
  84 Cu     6.681520    3.700334   20.568262    ( 0.0000,  0.0000,  0.0000)
  85 Cu     4.912884    5.579607   21.198562    ( 0.0000,  0.0000,  0.0000)
  86 Cu    10.776715    5.560371   21.100152    ( 0.0000,  0.0000,  0.0000)
  87 Cu     0.840947    3.701142   20.488497    ( 0.0000,  0.0000,  0.0000)
  88 Cu     3.152569    3.709878   21.642782    ( 0.0000,  0.0000,  0.0000)
  89 Cu     1.393442    5.522870   22.252192    ( 0.0000,  0.0000,  0.0000)
  90 Cu     7.248265    5.604595   22.361291    ( 0.0000,  0.0000,  0.0000)
  91 Cu     8.929558    3.700432   21.799040    ( 0.0000,  0.0000,  0.0000)
  92 Cu    11.325390    3.701818   22.767155    ( 0.0000,  0.0000,  0.0000)
  93 Cu     9.659965    5.567139   23.362679    ( 0.0000,  0.0000,  0.0000)
  94 Cu     3.750254    5.435771   23.486657    ( 0.0000,  0.0000,  0.0000)
  95 Cu     5.611640    3.699885   22.831814    ( 0.0000,  0.0000,  0.0000)
  96 Cl     3.262201    3.712079   25.015182    ( 0.0000,  0.0000,  0.0000)
  97 Cl     9.551683    1.839806    8.450012    ( 0.0000,  0.0000,  0.0000)

Unit cell:
           periodic     x           y           z      points  spacing
  1. axis:    yes   11.703590    0.000000    0.000000    70     0.1672
  2. axis:    yes    0.000000    7.402000    0.000000    42     0.1762
  3. axis:    no     0.000000    0.000000   33.459128   192     0.1743

  Lengths:  11.703590   7.402000  33.459128
  Angles:   90.000000  90.000000  90.000000

Effective grid spacing dv^(1/3) = 0.1725

     iter     time        total  log10-change:
                         energy  eigst   dens
iter:   1 11:59:41 -7341.294931  -3.26
iter:   2 12:03:20 -7341.204543  -3.90  -2.88
iter:   3 12:06:59 -7341.195986c -4.80  -3.22
iter:   4 12:10:39 -7341.199353c -4.90  -3.30
iter:   5 12:14:19 -7341.188400c -5.11  -3.28
iter:   6 12:17:58 -7341.187842c -5.26  -3.63
iter:   7 12:21:40 -7341.187569c -6.00  -3.88
iter:   8 12:25:20 -7341.187536c -5.85  -4.01c
iter:   9 12:29:01 -7341.187433c -6.45  -4.16c
iter:  10 12:32:42 -7341.187401c -6.97  -4.38c
iter:  11 12:36:23 -7341.187386c -6.76  -4.50c
iter:  12 12:40:02 -7341.187349c -7.55c -4.44c

Converged after 12 iterations.

Dipole moment: (19.550278, -0.186338, 0.003264) |e|*Ang

Energy contributions relative to reference atoms: (reference = -4347169.275539)

Kinetic:       +678.439249
Potential:     -760.323613
External:        +0.000000
XC:            -7257.457472
Entropy (-ST):   -0.936578
Local:           -1.377224
--------------------------
Free energy:   -7341.655638
Extrapolated:  -7341.187349

Showing only first 2 kpts
 Kpt  Band  Eigenvalues  Occupancy
  0   533      0.25453    0.82301
  0   534      0.34980    0.42483
  0   535      0.36082    0.38914
  0   536      0.38951    0.30698

  1   533     -0.07530    1.89963
  1   534     -0.03721    1.85644
  1   535      0.05915    1.66295
  1   536      0.08644    1.57944


Fermi level: 0.21876

No gap

Forces in eV/Ang:
  0 Cu   -0.00354   -0.00237    0.01291
  1 Cu   -0.04553   -0.00169   -0.05433
  2 Cu    0.02298   -0.01044   -0.00833
  3 Cu    0.01685    0.00071    0.01399
  4 Cu   -0.00624   -0.02221   -0.02585
  5 Cu   -0.00748    0.00866   -0.01926
  6 Cu   -0.03727   -0.00423    0.01775
  7 Cu    0.00291   -0.00349    0.02438
  8 Cu    0.00586    0.02572    0.02247
  9 Cu   -0.01522   -0.00182    0.00888
 10 Cu   -0.00520   -0.00440   -0.03126
 11 Cu   -0.01329    0.01751   -0.00297
 12 Cu   -0.01760   -0.00706    0.01619
 13 Cu   -0.01436   -0.01195    0.01437
 14 Cu    0.01361   -0.00198    0.03198
 15 Cu    0.01095    0.01974   -0.00052
 16 Cu   -0.00807    0.00265   -0.00302
 17 Cu    0.03985   -0.00303    0.00480
 18 Cu   -0.01149   -0.00383    0.00834
 19 Cu   -0.00216   -0.00322    0.01980
 20 Cu    0.02019   -0.00044    0.01641
 21 Cu    0.01948   -0.00070    0.00073
 22 Cu   -0.00938   -0.00213   -0.00853
 23 Cu   -0.00990   -0.00914    0.00069
 24 Cu   -0.01196    0.00304   -0.00605
 25 Cu   -0.03556    0.00483   -0.01169
 26 Cu    0.02214   -0.01216    0.01520
 27 Cu    0.00171   -0.00505    0.01377
 28 Cu   -0.00513    0.00082   -0.01536
 29 Cu    0.00146    0.00564   -0.01143
 30 Cu    0.01056    0.00924   -0.02825
 31 Cu    0.01184    0.00471   -0.00478
 32 Cu    0.01631   -0.00894    0.01825
 33 Cu    0.01959   -0.00589   -0.00201
 34 Cu   -0.01228    0.01831   -0.01073
 35 Cu   -0.00518    0.00419   -0.00382
 36 Cu   -0.00816   -0.00472   -0.03215
 37 Cu    0.00533    0.02488   -0.03840
 38 Cu    0.01806    0.02174   -0.00301
 39 Cu   -0.00555   -0.00206   -0.00235
 40 Cu    0.01141   -0.00621   -0.04351
 41 Cu    0.00095   -0.01911    0.02153
 42 Cu   -0.00558    0.00434   -0.02733
 43 Cu   -0.01490    0.00094   -0.01145
 44 Cu   -0.01876    0.00176    0.00219
 45 Cu    0.00799   -0.00230   -0.02088
 46 Cu    0.01226   -0.04405    0.00328
 47 Cu    0.01119   -0.00879   -0.03705
 48 Cu   -0.00669    0.00239    0.01937
 49 Cu    0.01930   -0.00177   -0.00322
 50 Cu   -0.01111    0.00868    0.03379
 51 Cu   -0.01161    0.03822   -0.00914
 52 Cu   -0.00199    0.01927   -0.02364
 53 Cu   -0.01092    0.00606    0.04261
 54 Cu    0.01421   -0.00073    0.01199
 55 Cu    0.00458   -0.00419    0.02622
 56 Cu   -0.00545   -0.02535    0.03864
 57 Cu    0.00626    0.00468    0.03312
 58 Cu    0.00622    0.00204    0.00349
 59 Cu   -0.01579   -0.02178    0.00377
 60 Cu   -0.02098    0.00569    0.00116
 61 Cu   -0.01785    0.00903   -0.01921
 62 Cu    0.00561   -0.00424    0.00284
 63 Cu    0.01268   -0.01814    0.01067
 64 Cu   -0.00157   -0.00571    0.01014
 65 Cu    0.00588   -0.00050    0.01422
 66 Cu   -0.01194   -0.00450    0.00400
 67 Cu   -0.01053   -0.00933    0.02726
 68 Cu    0.03631   -0.00475    0.01112
 69 Cu    0.01269   -0.00282    0.00525
 70 Cu   -0.00186    0.00506   -0.01449
 71 Cu   -0.02244    0.01212   -0.01534
 72 Cu   -0.01887    0.00048   -0.00195
 73 Cu   -0.01936    0.00036   -0.01710
 74 Cu    0.00989    0.00918   -0.00112
 75 Cu    0.00917    0.00221    0.00787
 76 Cu   -0.03856    0.00292   -0.00549
 77 Cu    0.00774   -0.00246    0.00145
 78 Cu    0.00170    0.00320   -0.02071
 79 Cu    0.01136    0.00367   -0.00871
 80 Cu    0.01313    0.01179   -0.01499
 81 Cu    0.01646    0.00723   -0.01701
 82 Cu   -0.01144   -0.01976    0.00003
 83 Cu   -0.01340    0.00182   -0.03201
 84 Cu    0.01354    0.00177   -0.00765
 85 Cu   -0.00640   -0.02496   -0.02282
 86 Cu    0.01537   -0.01747    0.00395
 87 Cu    0.00596    0.00445    0.03191
 88 Cu    0.00648   -0.00831    0.01570
 89 Cu    0.00534    0.02226    0.02414
 90 Cu   -0.00343    0.00353   -0.02580
 91 Cu    0.03714    0.00415   -0.01781
 92 Cu    0.04503    0.00180    0.05276
 93 Cu    0.00466    0.00238   -0.01433
 94 Cu   -0.01504    0.00406   -0.01977
 95 Cu   -0.02174    0.01053    0.00384
 96 Cl    0.09480   -0.00442    0.01210
 97 Cl   -0.09917    0.00403    0.00605

System changes: positions 

Initializing position-dependent things.

Density initialized from wave functions
      .----------------------------.  
     /|                            |  
    / |                            |  
   /  |                            |  
  /   |                            |  
 *    |                            |  
 |    |                            |  
 |    |                            |  
 |    |                            |  
 |    |                            |  
 |    |                            |  
 |    |                            |  
 |    |                            |  
 |    |     Cl                    Cu  
 |    |       Cu            CCu    |  
 |    | Cu             Cu          |  
 |    |     Cu   Cu    Cu Cu   CCu |  
 |    Cu   Cu    Cu Cu    Cu       |  
 |    Cu   Cu Cu    Cu    Cu       |  
 |   Cu  Cu   Cu    Cu       Cu    |  
 |    |  Cu   Cu       Cu    Cu    |  
 | Cu |  Cu   Cu       Cu    Cu    |  
 | Cu | Cu       Cu    Cu CuCu     |  
 |    | Cu  Cu   Cu    Cu Cu    Cu |  
 |    Cu   Cu    Cu Cu    Cu   Cu  |  
 |    Cu   Cu  Cu   Cu    Cu Cu    |  
 |   Cu    Cu  Cu   Cu    Cu Cu    |  
 |    |  Cu   Cu    Cu Cu    Cu    |  
 |    |  Cu   Cu       Cu    Cu    |  
 | Cu | Cu  CuCu Cu    Cu          |  
 |    |     Cu   Cu       Cu    Cu |  
 |    |    Cu             Cu       |  
 |    Cu            Cu       Cu    |  
 |    |                            |  
 |    |                 CuCl       |  
 |    |                            |  
 |    |                            |  
 |    |                            |  
 |    |                            |  
 |    |                            |  
 |    |                            |  
 |    .----------------------------.  
 |   /                            /   
 |  /                            /    
 | /                            /     
 |/                            /      
 *----------------------------*       

Positions:
   0 Cu     3.154367   -0.017386   10.109185    ( 0.0000,  0.0000,  0.0000)
   1 Cu     1.481901    1.849060   10.693968    ( 0.0000,  0.0000,  0.0000)
   2 Cu     7.209724    1.849655   10.635678    ( 0.0000,  0.0000,  0.0000)
   3 Cu     9.068157    0.118870    9.985059    ( 0.0000,  0.0000,  0.0000)
   4 Cu    11.422723    0.027330   11.211106    ( 0.0000,  0.0000,  0.0000)
   5 Cu     9.662175    1.844306   11.818123    ( 0.0000,  0.0000,  0.0000)
   6 Cu     3.880346    1.849691   11.671226    ( 0.0000,  0.0000,  0.0000)
   7 Cu     5.570162   -0.055630   11.111518    ( 0.0000,  0.0000,  0.0000)
   8 Cu     7.900945   -0.027512   12.271903    ( 0.0000,  0.0000,  0.0000)
   9 Cu     6.131604    1.849943   12.900187    ( 0.0000,  0.0000,  0.0000)
  10 Cu     0.272036    1.850799   12.973472    ( 0.0000,  0.0000,  0.0000)
  11 Cu     2.040131   -0.005728   12.366643    ( 0.0000,  0.0000,  0.0000)
  12 Cu     4.379927    0.000626   13.488615    ( 0.0000,  0.0000,  0.0000)
  13 Cu     2.638093    1.851188   14.087250    ( 0.0000,  0.0000,  0.0000)
  14 Cu     8.447397    1.847616   14.106212    ( 0.0000,  0.0000,  0.0000)
  15 Cu    10.199653   -0.031161   13.521566    ( 0.0000,  0.0000,  0.0000)
  16 Cu     0.860928   -0.003783   14.696192    ( 0.0000,  0.0000,  0.0000)
  17 Cu    10.782332    1.853223   15.271747    ( 0.0000,  0.0000,  0.0000)
  18 Cu     4.976608    1.850095   15.245284    ( 0.0000,  0.0000,  0.0000)
  19 Cu     6.723860   -0.009863   14.646049    ( 0.0000,  0.0000,  0.0000)
  20 Cu     9.031277   -0.001039   15.863388    ( 0.0000,  0.0000,  0.0000)
  21 Cu     7.276860    1.850168   16.448122    ( 0.0000,  0.0000,  0.0000)
  22 Cu     1.443808    1.851769   16.434327    ( 0.0000,  0.0000,  0.0000)
  23 Cu     3.206866    0.004871   15.848438    ( 0.0000,  0.0000,  0.0000)
  24 Cu     5.538266    0.001781   17.017010    ( 0.0000,  0.0000,  0.0000)
  25 Cu     3.788300    1.848187   17.599594    ( 0.0000,  0.0000,  0.0000)
  26 Cu     9.606512    1.852735   17.621665    ( 0.0000,  0.0000,  0.0000)
  27 Cu    11.369088    0.002323   17.017323    ( 0.0000,  0.0000,  0.0000)
  28 Cu     2.022383    0.002925   18.188489    ( 0.0000,  0.0000,  0.0000)
  29 Cu     0.250699    1.846699   18.770128    ( 0.0000,  0.0000,  0.0000)
  30 Cu     6.095389    1.840964   18.816622    ( 0.0000,  0.0000,  0.0000)
  31 Cu     7.846666    0.001152   18.220460    ( 0.0000,  0.0000,  0.0000)
  32 Cu    10.188992    0.001956   19.363683    ( 0.0000,  0.0000,  0.0000)
  33 Cu     8.435079    1.849558   19.977009    ( 0.0000,  0.0000,  0.0000)
  34 Cu     2.617412    1.825126   19.953247    ( 0.0000,  0.0000,  0.0000)
  35 Cu     4.359335   -0.003632   19.385805    ( 0.0000,  0.0000,  0.0000)
  36 Cu     6.687154   -0.001862   20.578557    ( 0.0000,  0.0000,  0.0000)
  37 Cu     4.911001    1.831885   21.198675    ( 0.0000,  0.0000,  0.0000)
  38 Cu    10.775891    1.844381   21.101469    ( 0.0000,  0.0000,  0.0000)
  39 Cu     0.860497    0.001567   20.518501    ( 0.0000,  0.0000,  0.0000)
  40 Cu     3.118033    0.002868   21.888483    ( 0.0000,  0.0000,  0.0000)
  41 Cu     1.390310    1.883626   22.255827    ( 0.0000,  0.0000,  0.0000)
  42 Cu     7.250245    1.797212   22.359651    ( 0.0000,  0.0000,  0.0000)
  43 Cu     9.003137   -0.000948   21.758113    ( 0.0000,  0.0000,  0.0000)
  44 Cu    11.401691   -0.000656   22.815412    ( 0.0000,  0.0000,  0.0000)
  45 Cu     9.662471    1.832534   23.362548    ( 0.0000,  0.0000,  0.0000)
  46 Cu     3.730664    1.987115   23.477974    ( 0.0000,  0.0000,  0.0000)
  47 Cu     5.437865    0.006909   22.905457    ( 0.0000,  0.0000,  0.0000)
  48 Cu     3.153214    3.718804   10.105423    ( 0.0000,  0.0000,  0.0000)
  49 Cu     1.414535    5.552006   10.653200    ( 0.0000,  0.0000,  0.0000)
  50 Cu     7.377721    5.544631   10.564786    ( 0.0000,  0.0000,  0.0000)
  51 Cu     9.085412    3.564472    9.991164    ( 0.0000,  0.0000,  0.0000)
  52 Cu    11.425915    3.667782   11.213648    ( 0.0000,  0.0000,  0.0000)
  53 Cu     9.698317    5.548617   11.581218    ( 0.0000,  0.0000,  0.0000)
  54 Cu     3.813393    5.552287   11.709356    ( 0.0000,  0.0000,  0.0000)
  55 Cu     5.565741    3.753953   11.109035    ( 0.0000,  0.0000,  0.0000)
  56 Cu     7.905088    3.719853   12.270135    ( 0.0000,  0.0000,  0.0000)
  57 Cu     6.129385    5.553238   12.889160    ( 0.0000,  0.0000,  0.0000)
  58 Cu     0.252028    5.549743   12.949594    ( 0.0000,  0.0000,  0.0000)
  59 Cu     2.040021    3.707012   12.366435    ( 0.0000,  0.0000,  0.0000)
  60 Cu     4.381144    3.701911   13.490664    ( 0.0000,  0.0000,  0.0000)
  61 Cu     2.627470    5.549417   14.104020    ( 0.0000,  0.0000,  0.0000)
  62 Cu     8.457044    5.555018   14.082676    ( 0.0000,  0.0000,  0.0000)
  63 Cu    10.198958    3.726276   13.515188    ( 0.0000,  0.0000,  0.0000)
  64 Cu     0.862185    3.704669   14.697833    ( 0.0000,  0.0000,  0.0000)
  65 Cu    10.793968    5.548343   15.279834    ( 0.0000,  0.0000,  0.0000)
  66 Cu     4.969503    5.550284   15.247648    ( 0.0000,  0.0000,  0.0000)
  67 Cu     6.720724    3.710361   14.651672    ( 0.0000,  0.0000,  0.0000)
  68 Cu     9.027803    3.703128   15.868856    ( 0.0000,  0.0000,  0.0000)
  69 Cu     7.277955    5.549674   16.451684    ( 0.0000,  0.0000,  0.0000)
  70 Cu     1.447285    5.549001   16.450778    ( 0.0000,  0.0000,  0.0000)
  71 Cu     3.209602    3.698629   15.846254    ( 0.0000,  0.0000,  0.0000)
  72 Cu     5.539266    3.701125   17.020604    ( 0.0000,  0.0000,  0.0000)
  73 Cu     3.784830    5.552428   17.605102    ( 0.0000,  0.0000,  0.0000)
  74 Cu     9.609411    5.546465   17.619417    ( 0.0000,  0.0000,  0.0000)
  75 Cu    11.372507    3.699546   17.033718    ( 0.0000,  0.0000,  0.0000)
  76 Cu     2.033753    3.698172   18.196465    ( 0.0000,  0.0000,  0.0000)
  77 Cu     0.252051    5.555064   18.771852    ( 0.0000,  0.0000,  0.0000)
  78 Cu     6.092311    5.561272   18.822271    ( 0.0000,  0.0000,  0.0000)
  79 Cu     7.839413    3.701224   18.222901    ( 0.0000,  0.0000,  0.0000)
  80 Cu    10.178312    3.700137   19.380432    ( 0.0000,  0.0000,  0.0000)
  81 Cu     8.436299    5.550612   19.979203    ( 0.0000,  0.0000,  0.0000)
  82 Cu     2.616812    5.582497   19.947006    ( 0.0000,  0.0000,  0.0000)
  83 Cu     4.368828    3.703726   19.362440    ( 0.0000,  0.0000,  0.0000)
  84 Cu     6.684531    3.701404   20.567700    ( 0.0000,  0.0000,  0.0000)
  85 Cu     4.915257    5.578583   21.197053    ( 0.0000,  0.0000,  0.0000)
  86 Cu    10.775863    5.556979   21.101278    ( 0.0000,  0.0000,  0.0000)
  87 Cu     0.840752    3.700517   20.494686    ( 0.0000,  0.0000,  0.0000)
  88 Cu     3.154350    3.707078   21.651413    ( 0.0000,  0.0000,  0.0000)
  89 Cu     1.393560    5.523952   22.258218    ( 0.0000,  0.0000,  0.0000)
  90 Cu     7.245712    5.607265   22.357450    ( 0.0000,  0.0000,  0.0000)
  91 Cu     8.935907    3.701696   21.796641    ( 0.0000,  0.0000,  0.0000)
  92 Cu    11.334590    3.702255   22.774635    ( 0.0000,  0.0000,  0.0000)
  93 Cu     9.661450    5.568694   23.358877    ( 0.0000,  0.0000,  0.0000)
  94 Cu     3.748007    5.432720   23.483954    ( 0.0000,  0.0000,  0.0000)
  95 Cu     5.606515    3.701722   22.833673    ( 0.0000,  0.0000,  0.0000)
  96 Cl     3.275726    3.714223   25.015917    ( 0.0000,  0.0000,  0.0000)
  97 Cl     9.539739    1.837774    8.445919    ( 0.0000,  0.0000,  0.0000)

Unit cell:
           periodic     x           y           z      points  spacing
  1. axis:    yes   11.703590    0.000000    0.000000    70     0.1672
  2. axis:    yes    0.000000    7.402000    0.000000    42     0.1762
  3. axis:    no     0.000000    0.000000   33.459128   192     0.1743

  Lengths:  11.703590   7.402000  33.459128
  Angles:   90.000000  90.000000  90.000000

Effective grid spacing dv^(1/3) = 0.1725

     iter     time        total  log10-change:
                         energy  eigst   dens
iter:   1 12:46:00 -7341.363896  -3.10
iter:   2 12:49:39 -7341.261963  -3.68  -2.79
iter:   3 12:53:18 -7341.257992c -4.18  -2.97
iter:   4 12:56:58 -7341.202794c -4.69  -2.96
iter:   5 13:00:40 -7341.198432c -4.88  -3.32
iter:   6 13:04:21 -7341.197706c -5.07  -3.54
iter:   7 13:08:01 -7341.197275c -5.82  -3.79
iter:   8 13:11:42 -7341.197194c -5.75  -3.92
iter:   9 13:15:23 -7341.197305c -6.48  -4.07c
iter:  10 13:19:04 -7341.197033c -6.40  -4.11c
iter:  11 13:22:43 -7341.196989c -6.99  -4.37c
iter:  12 13:26:22 -7341.196965c -6.94  -4.47c
iter:  13 13:30:02 -7341.196968c -7.26  -4.56c
iter:  14 13:33:41 -7341.196970c -7.69c -4.71c

Converged after 14 iterations.

Dipole moment: (19.634641, -0.059944, 0.006179) |e|*Ang

Energy contributions relative to reference atoms: (reference = -4347169.275539)

Kinetic:       +678.407461
Potential:     -760.284370
External:        +0.000000
XC:            -7257.475412
Entropy (-ST):   -0.936080
Local:           -1.376608
--------------------------
Free energy:   -7341.665010
Extrapolated:  -7341.196970

Showing only first 2 kpts
 Kpt  Band  Eigenvalues  Occupancy
  0   533      0.25408    0.82126
  0   534      0.34834    0.42703
  0   535      0.35954    0.39062
  0   536      0.38904    0.30609

  1   533     -0.07703    1.90051
  1   534     -0.03795    1.85635
  1   535      0.05883    1.66158
  1   536      0.08385    1.58531


Fermi level: 0.21795

No gap

Forces in eV/Ang:
  0 Cu    0.00673    0.00903   -0.00840
  1 Cu   -0.01561   -0.00046   -0.05370
  2 Cu   -0.00008   -0.00275    0.00347
  3 Cu    0.00994   -0.02279    0.00493
  4 Cu   -0.01069   -0.03670   -0.00500
  5 Cu   -0.00440   -0.00492    0.03705
  6 Cu   -0.02270    0.00318    0.01272
  7 Cu   -0.01625    0.01886    0.01464
  8 Cu    0.03368    0.04918    0.03318
  9 Cu   -0.00282    0.00560    0.01375
 10 Cu   -0.01513   -0.01459   -0.01126
 11 Cu   -0.03399    0.00502   -0.00200
 12 Cu   -0.00335   -0.00295    0.02406
 13 Cu   -0.00529   -0.00500    0.00444
 14 Cu    0.01166    0.01434   -0.03351
 15 Cu   -0.00131    0.03022   -0.04090
 16 Cu   -0.00022    0.00089   -0.00734
 17 Cu    0.03726    0.00878    0.00882
 18 Cu   -0.01325   -0.00204   -0.00603
 19 Cu   -0.01322    0.01318    0.03299
 20 Cu   -0.01082   -0.01474    0.02661
 21 Cu    0.01223   -0.00346    0.01010
 22 Cu   -0.02829    0.00441    0.01555
 23 Cu    0.00872   -0.02451   -0.01461
 24 Cu   -0.00658   -0.02150   -0.01267
 25 Cu   -0.01116   -0.00013    0.00890
 26 Cu    0.00306   -0.00128    0.00357
 27 Cu    0.03133   -0.00739    0.01060
 28 Cu   -0.00811    0.01302   -0.00023
 29 Cu    0.01516    0.00704   -0.00391
 30 Cu   -0.01456    0.01445    0.00013
 31 Cu    0.02086   -0.01894   -0.02209
 32 Cu    0.00772   -0.02021    0.01417
 33 Cu   -0.00375    0.00848    0.00426
 34 Cu    0.01571    0.00863    0.00089
 35 Cu   -0.03311    0.03712   -0.01470
 36 Cu    0.01844    0.02648   -0.02248
 37 Cu   -0.00310    0.02425   -0.05926
 38 Cu    0.02255    0.01257    0.00856
 39 Cu   -0.00186   -0.00518    0.03317
 40 Cu   -0.00296   -0.00033   -0.04278
 41 Cu    0.01503   -0.04753    0.01654
 42 Cu    0.00439    0.01612   -0.03042
 43 Cu   -0.02215    0.00581   -0.02258
 44 Cu    0.00404    0.00295   -0.02018
 45 Cu    0.00005    0.01230   -0.01015
 46 Cu    0.01314   -0.05110    0.00797
 47 Cu    0.00380   -0.00390   -0.02096
 48 Cu    0.00075   -0.01241    0.00891
 49 Cu   -0.00436   -0.00298    0.01835
 50 Cu   -0.00116    0.00393    0.01488
 51 Cu   -0.01091    0.03833   -0.01836
 52 Cu   -0.01689    0.04719   -0.02111
 53 Cu    0.00191    0.00022    0.03944
 54 Cu    0.02026   -0.00597    0.02389
 55 Cu   -0.00516   -0.01664    0.02878
 56 Cu    0.00413   -0.02770    0.05957
 57 Cu   -0.02117   -0.02653    0.02785
 58 Cu    0.00375    0.00556   -0.03015
 59 Cu   -0.01951   -0.01225   -0.00725
 60 Cu    0.00357   -0.00854   -0.00261
 61 Cu   -0.00845    0.01985   -0.01374
 62 Cu    0.03273   -0.03722    0.01651
 63 Cu   -0.01617   -0.00894    0.00163
 64 Cu   -0.01560   -0.00721    0.00456
 65 Cu    0.00890   -0.01264   -0.00032
 66 Cu   -0.01990    0.01832    0.02249
 67 Cu    0.01412   -0.01432    0.00063
 68 Cu    0.01142    0.00057   -0.01022
 69 Cu    0.00590    0.02079    0.01031
 70 Cu   -0.03095    0.00763   -0.01143
 71 Cu   -0.00174    0.00127   -0.00286
 72 Cu   -0.01273    0.00406   -0.01255
 73 Cu    0.01191    0.01432   -0.02807
 74 Cu   -0.00820    0.02449    0.01587
 75 Cu    0.02874   -0.00451   -0.01615
 76 Cu   -0.03538   -0.00903   -0.00919
 77 Cu   -0.00069   -0.00066    0.00768
 78 Cu    0.01241   -0.01331   -0.03259
 79 Cu    0.01398    0.00244    0.00591
 80 Cu    0.00463    0.00522   -0.00356
 81 Cu    0.00327    0.00309   -0.02318
 82 Cu    0.00099   -0.02990    0.04306
 83 Cu   -0.01263   -0.01419    0.03376
 84 Cu    0.00249   -0.00543   -0.00886
 85 Cu   -0.03277   -0.04536   -0.03377
 86 Cu    0.03651   -0.00515    0.00329
 87 Cu    0.01640    0.01444    0.01433
 88 Cu    0.00089    0.00479   -0.04382
 89 Cu    0.00873    0.03728    0.00117
 90 Cu    0.01599   -0.01819   -0.01666
 91 Cu    0.02180   -0.00318   -0.01282
 92 Cu    0.01314    0.00050    0.05178
 93 Cu   -0.00614   -0.00869    0.00699
 94 Cu   -0.00676    0.03594   -0.01580
 95 Cu    0.00478    0.00254   -0.00900
 96 Cl    0.09541   -0.01903    0.01867
 97 Cl   -0.10393    0.01743    0.01553

System changes: positions 

Initializing position-dependent things.

Density initialized from wave functions
      .----------------------------.  
     /|                            |  
    / |                            |  
   /  |                            |  
  /   |                            |  
 *    |                            |  
 |    |                            |  
 |    |                            |  
 |    |                            |  
 |    |                            |  
 |    |                            |  
 |    |                            |  
 |    |                            |  
 |    |     Cl                    Cu  
 |    |       Cu            CCu    |  
 |    | Cu             Cu          |  
 |    |     Cu   Cu    Cu Cu   CCu |  
 |    Cu   Cu    Cu Cu    Cu   Cu  |  
 |    Cu   Cu Cu    Cu    Cu       |  
 |   Cu  Cu   Cu    Cu       Cu    |  
 |    |  Cu   Cu       Cu    Cu    |  
 | Cu |  Cu   Cu       Cu    Cu    |  
 | Cu | Cu       Cu    Cu   Cu     |  
 |    | Cu  Cu   Cu    Cu Cu    Cu |  
 |    Cu   Cu    Cu Cu    Cu   Cu  |  
 |    Cu   Cu  Cu   Cu    Cu Cu    |  
 |   Cu    Cu  Cu   Cu    Cu Cu    |  
 |    |  Cu   Cu    Cu Cu    Cu    |  
 |    |  Cu   Cu       Cu    Cu    |  
 | Cu | Cu    Cu Cu    Cu          |  
 |    |     Cu   Cu       Cu    Cu |  
 |    |    Cu             Cu       |  
 |    Cu            Cu       Cu    |  
 |    |                            |  
 |    |                 CuCl       |  
 |    |                            |  
 |    |                            |  
 |    |                            |  
 |    |                            |  
 |    |                            |  
 |    |                            |  
 |    .----------------------------.  
 |   /                            /   
 |  /                            /    
 | /                            /     
 |/                            /      
 *----------------------------*       

Positions:
   0 Cu     3.154209   -0.017447   10.110711    ( 0.0000,  0.0000,  0.0000)
   1 Cu     1.474331    1.848731   10.683119    ( 0.0000,  0.0000,  0.0000)
   2 Cu     7.212809    1.848163   10.634817    ( 0.0000,  0.0000,  0.0000)
   3 Cu     9.070841    0.118255    9.987359    ( 0.0000,  0.0000,  0.0000)
   4 Cu    11.421588    0.022517   11.206891    ( 0.0000,  0.0000,  0.0000)
   5 Cu     9.660617    1.845681   11.816634    ( 0.0000,  0.0000,  0.0000)
   6 Cu     3.873740    1.849188   11.674165    ( 0.0000,  0.0000,  0.0000)
   7 Cu     5.569937   -0.055331   11.115748    ( 0.0000,  0.0000,  0.0000)
   8 Cu     7.902955   -0.021582   12.276501    ( 0.0000,  0.0000,  0.0000)
   9 Cu     6.129161    1.849827   12.901854    ( 0.0000,  0.0000,  0.0000)
  10 Cu     0.270433    1.849613   12.967990    ( 0.0000,  0.0000,  0.0000)
  11 Cu     2.036940   -0.002898   12.365671    ( 0.0000,  0.0000,  0.0000)
  12 Cu     4.377227   -0.000590   13.492069    ( 0.0000,  0.0000,  0.0000)
  13 Cu     2.635798    1.849083   14.089838    ( 0.0000,  0.0000,  0.0000)
  14 Cu     8.449854    1.847789   14.110378    ( 0.0000,  0.0000,  0.0000)
  15 Cu    10.201209   -0.027071   13.520246    ( 0.0000,  0.0000,  0.0000)
  16 Cu     0.859583   -0.003458   14.695558    ( 0.0000,  0.0000,  0.0000)
  17 Cu    10.789747    1.853053   15.272910    ( 0.0000,  0.0000,  0.0000)
  18 Cu     4.974440    1.849440   15.246608    ( 0.0000,  0.0000,  0.0000)
  19 Cu     6.723086   -0.009828   14.650691    ( 0.0000,  0.0000,  0.0000)
  20 Cu     9.033959   -0.001690   15.867008    ( 0.0000,  0.0000,  0.0000)
  21 Cu     7.280315    1.850048   16.448732    ( 0.0000,  0.0000,  0.0000)
  22 Cu     1.441427    1.851521   16.433778    ( 0.0000,  0.0000,  0.0000)
  23 Cu     3.205761    0.002539   15.848044    ( 0.0000,  0.0000,  0.0000)
  24 Cu     5.536156    0.001565   17.015769    ( 0.0000,  0.0000,  0.0000)
  25 Cu     3.782400    1.849005   17.598223    ( 0.0000,  0.0000,  0.0000)
  26 Cu     9.609869    1.850857   17.624202    ( 0.0000,  0.0000,  0.0000)
  27 Cu    11.370487    0.001154   17.019980    ( 0.0000,  0.0000,  0.0000)
  28 Cu     2.021457    0.003538   18.186348    ( 0.0000,  0.0000,  0.0000)
  29 Cu     0.251677    1.847736   18.768450    ( 0.0000,  0.0000,  0.0000)
  30 Cu     6.096553    1.842975   18.811964    ( 0.0000,  0.0000,  0.0000)
  31 Cu     7.849194    0.001161   18.218891    ( 0.0000,  0.0000,  0.0000)
  32 Cu    10.191939   -0.000277   19.367125    ( 0.0000,  0.0000,  0.0000)
  33 Cu     8.437870    1.849016   19.977176    ( 0.0000,  0.0000,  0.0000)
  34 Cu     2.616025    1.828177   19.951653    ( 0.0000,  0.0000,  0.0000)
  35 Cu     4.357269   -0.001628   19.384406    ( 0.0000,  0.0000,  0.0000)
  36 Cu     6.686524   -0.001537   20.572705    ( 0.0000,  0.0000,  0.0000)
  37 Cu     4.911938    1.836653   21.190721    ( 0.0000,  0.0000,  0.0000)
  38 Cu    10.779293    1.848175   21.101672    ( 0.0000,  0.0000,  0.0000)
  39 Cu     0.859706    0.001175   20.519305    ( 0.0000,  0.0000,  0.0000)
  40 Cu     3.119881    0.002010   21.880001    ( 0.0000,  0.0000,  0.0000)
  41 Cu     1.391068    1.878803   22.259961    ( 0.0000,  0.0000,  0.0000)
  42 Cu     7.249417    1.798599   22.354570    ( 0.0000,  0.0000,  0.0000)
  43 Cu     9.000002   -0.000561   21.755772    ( 0.0000,  0.0000,  0.0000)
  44 Cu    11.398834   -0.000277   22.815224    ( 0.0000,  0.0000,  0.0000)
  45 Cu     9.663434    1.832641   23.359014    ( 0.0000,  0.0000,  0.0000)
  46 Cu     3.733647    1.978277   23.478501    ( 0.0000,  0.0000,  0.0000)
  47 Cu     5.439803    0.005614   22.898882    ( 0.0000,  0.0000,  0.0000)
  48 Cu     3.152424    3.718716   10.108715    ( 0.0000,  0.0000,  0.0000)
  49 Cu     1.417622    5.551629   10.653325    ( 0.0000,  0.0000,  0.0000)
  50 Cu     7.375693    5.545916   10.571137    ( 0.0000,  0.0000,  0.0000)
  51 Cu     9.082658    3.571880    9.989432    ( 0.0000,  0.0000,  0.0000)
  52 Cu    11.425036    3.672623   11.209317    ( 0.0000,  0.0000,  0.0000)
  53 Cu     9.696408    5.549456   11.589701    ( 0.0000,  0.0000,  0.0000)
  54 Cu     3.816427    5.551925   11.711770    ( 0.0000,  0.0000,  0.0000)
  55 Cu     5.566341    3.752545   11.114039    ( 0.0000,  0.0000,  0.0000)
  56 Cu     7.904182    3.714904   12.278076    ( 0.0000,  0.0000,  0.0000)
  57 Cu     6.129650    5.552909   12.895386    ( 0.0000,  0.0000,  0.0000)
  58 Cu     0.252923    5.550152   12.949075    ( 0.0000,  0.0000,  0.0000)
  59 Cu     2.036935    3.703209   12.366340    ( 0.0000,  0.0000,  0.0000)
  60 Cu     4.378155    3.702429   13.490633    ( 0.0000,  0.0000,  0.0000)
  61 Cu     2.624298    5.551647   14.100598    ( 0.0000,  0.0000,  0.0000)
  62 Cu     8.459161    5.553013   14.084131    ( 0.0000,  0.0000,  0.0000)
  63 Cu    10.200369    3.723212   13.517019    ( 0.0000,  0.0000,  0.0000)
  64 Cu     0.861168    3.703611   14.699560    ( 0.0000,  0.0000,  0.0000)
  65 Cu    10.795010    5.547798   15.282020    ( 0.0000,  0.0000,  0.0000)
  66 Cu     4.967029    5.550269   15.249338    ( 0.0000,  0.0000,  0.0000)
  67 Cu     6.719597    3.708334   14.656332    ( 0.0000,  0.0000,  0.0000)
  68 Cu     9.033830    3.702335   15.870303    ( 0.0000,  0.0000,  0.0000)
  69 Cu     7.280200    5.549891   16.452914    ( 0.0000,  0.0000,  0.0000)
  70 Cu     1.445877    5.550180   16.448247    ( 0.0000,  0.0000,  0.0000)
  71 Cu     3.206265    3.700504   15.843950    ( 0.0000,  0.0000,  0.0000)
  72 Cu     5.535950    3.701239   17.019958    ( 0.0000,  0.0000,  0.0000)
  73 Cu     3.782318    5.553051   17.601564    ( 0.0000,  0.0000,  0.0000)
  74 Cu     9.610542    5.548802   17.619989    ( 0.0000,  0.0000,  0.0000)
  75 Cu    11.374862    3.699803   17.034420    ( 0.0000,  0.0000,  0.0000)
  76 Cu     2.026575    3.698312   18.195423    ( 0.0000,  0.0000,  0.0000)
  77 Cu     0.253305    5.554780   18.772504    ( 0.0000,  0.0000,  0.0000)
  78 Cu     6.093047    5.561234   18.817603    ( 0.0000,  0.0000,  0.0000)
  79 Cu     7.841616    3.701883   18.221720    ( 0.0000,  0.0000,  0.0000)
  80 Cu    10.180412    3.702227   19.377947    ( 0.0000,  0.0000,  0.0000)
  81 Cu     8.438850    5.551849   19.975820    ( 0.0000,  0.0000,  0.0000)
  82 Cu     2.615148    5.578453   19.948467    ( 0.0000,  0.0000,  0.0000)
  83 Cu     4.366394    3.703530   19.358379    ( 0.0000,  0.0000,  0.0000)
  84 Cu     6.686801    3.701513   20.566350    ( 0.0000,  0.0000,  0.0000)
  85 Cu     4.913214    5.572900   21.192328    ( 0.0000,  0.0000,  0.0000)
  86 Cu    10.779326    5.554163   21.102387    ( 0.0000,  0.0000,  0.0000)
  87 Cu     0.842431    3.701697   20.500369    ( 0.0000,  0.0000,  0.0000)
  88 Cu     3.155629    3.705751   21.652299    ( 0.0000,  0.0000,  0.0000)
  89 Cu     1.394600    5.528782   22.262340    ( 0.0000,  0.0000,  0.0000)
  90 Cu     7.245784    5.607027   22.353067    ( 0.0000,  0.0000,  0.0000)
  91 Cu     8.942519    3.702183   21.793636    ( 0.0000,  0.0000,  0.0000)
  92 Cu    11.342134    3.702599   22.785304    ( 0.0000,  0.0000,  0.0000)
  93 Cu     9.661756    5.568766   23.357129    ( 0.0000,  0.0000,  0.0000)
  94 Cu     3.745772    5.434664   23.480421    ( 0.0000,  0.0000,  0.0000)
  95 Cu     5.603647    3.703220   22.833911    ( 0.0000,  0.0000,  0.0000)
  96 Cl     3.295212    3.713544   25.018465    ( 0.0000,  0.0000,  0.0000)
  97 Cl     9.520360    1.838350    8.444920    ( 0.0000,  0.0000,  0.0000)

Unit cell:
           periodic     x           y           z      points  spacing
  1. axis:    yes   11.703590    0.000000    0.000000    70     0.1672
  2. axis:    yes    0.000000    7.402000    0.000000    42     0.1762
  3. axis:    no     0.000000    0.000000   33.459128   192     0.1743

  Lengths:  11.703590   7.402000  33.459128
  Angles:   90.000000  90.000000  90.000000

Effective grid spacing dv^(1/3) = 0.1725

     iter     time        total  log10-change:
                         energy  eigst   dens
iter:   1 13:39:40 -7341.389655  -3.20
iter:   2 13:43:18 -7341.242512  -3.60  -2.75
iter:   3 13:46:56 -7341.243588c -4.45  -3.15
iter:   4 13:50:35 -7341.213673c -4.91  -3.09
iter:   5 13:54:13 -7341.210750c -5.51  -3.44
iter:   6 13:57:53 -7341.210353c -5.30  -3.65
iter:   7 14:01:32 -7341.210175c -6.25  -3.92
iter:   8 14:05:11 -7341.210143c -5.83  -4.01c
iter:   9 14:08:51 -7341.210093c -6.68  -4.21c
iter:  10 14:12:29 -7341.210007c -6.56  -4.36c
iter:  11 14:16:09 -7341.209973c -7.00  -4.49c
iter:  12 14:19:48 -7341.209975c -7.68c -4.57c

Converged after 12 iterations.

Dipole moment: (19.793091, -0.114572, 0.004432) |e|*Ang

Energy contributions relative to reference atoms: (reference = -4347169.275539)

Kinetic:       +678.215977
Potential:     -760.098867
External:        +0.000000
XC:            -7257.485665
Entropy (-ST):   -0.936034
Local:           -1.373403
--------------------------
Free energy:   -7341.677992
Extrapolated:  -7341.209975

Showing only first 2 kpts
 Kpt  Band  Eigenvalues  Occupancy
  0   533      0.25456    0.82059
  0   534      0.34769    0.43034
  0   535      0.35940    0.39212
  0   536      0.39051    0.30317

  1   533     -0.07645    1.90028
  1   534     -0.03764    1.85639
  1   535      0.05845    1.66359
  1   536      0.08259    1.59056


Fermi level: 0.21829

No gap

Forces in eV/Ang:
  0 Cu    0.00825    0.00724   -0.00755
  1 Cu   -0.00198   -0.00033   -0.02806
  2 Cu   -0.01195    0.00806    0.01470
  3 Cu    0.00276   -0.03721    0.00765
  4 Cu   -0.00952   -0.02409    0.00150
  5 Cu    0.01414    0.00685    0.02759
  6 Cu   -0.01203    0.00087    0.01301
  7 Cu   -0.01599    0.02808    0.01834
  8 Cu    0.01489    0.02215    0.03305
  9 Cu    0.00113   -0.00023    0.01085
 10 Cu   -0.00925   -0.00324   -0.00564
 11 Cu   -0.02581    0.00194   -0.01033
 12 Cu    0.00633    0.00570    0.01086
 13 Cu   -0.00430    0.00574   -0.00239
 14 Cu    0.00722    0.00753   -0.03522
 15 Cu   -0.00401    0.00968   -0.02045
 16 Cu   -0.00128   -0.00137   -0.00955
 17 Cu    0.00195   -0.00071    0.00552
 18 Cu   -0.00921    0.00467   -0.00604
 19 Cu   -0.00249    0.01367    0.01624
 20 Cu   -0.00742   -0.00720   -0.00338
 21 Cu   -0.00184    0.00222    0.00919
 22 Cu   -0.01008   -0.00092    0.01886
 23 Cu    0.00130   -0.01025   -0.01225
 24 Cu    0.00139   -0.01131    0.00154
 25 Cu    0.00810    0.00071    0.00625
 26 Cu   -0.00235    0.00772   -0.00675
 27 Cu    0.02859   -0.00517    0.00036
 28 Cu   -0.00499    0.00175    0.02109
 29 Cu    0.01069    0.00049    0.01994
 30 Cu   -0.01829    0.00678    0.00377
 31 Cu    0.00878   -0.01125   -0.01434
 32 Cu    0.00671   -0.00420    0.00751
 33 Cu   -0.00733    0.01544   -0.00649
 34 Cu    0.00567   -0.00326    0.00717
 35 Cu   -0.03036    0.02071   -0.01977
 36 Cu    0.01033    0.02078   -0.01745
 37 Cu   -0.00430    0.00634   -0.02964
 38 Cu    0.02014    0.00628    0.00558
 39 Cu    0.00631    0.00211    0.02006
 40 Cu    0.00726    0.00957   -0.03089
 41 Cu    0.02554   -0.03616    0.00502
 42 Cu    0.00595    0.02322   -0.02504
 43 Cu   -0.00350    0.00142   -0.01660
 44 Cu    0.00091    0.00125   -0.02388
 45 Cu   -0.00599    0.01254   -0.00585
 46 Cu    0.01052   -0.03196   -0.00433
 47 Cu   -0.00293    0.00008   -0.02885
 48 Cu    0.00600   -0.01304    0.00357
 49 Cu   -0.00304   -0.00125    0.02125
 50 Cu    0.00753   -0.00007    0.02249
 51 Cu   -0.01140    0.03293    0.00559
 52 Cu   -0.02651    0.03559   -0.00942
 53 Cu   -0.00943   -0.00962    0.02419
 54 Cu    0.00212   -0.00163    0.01773
 55 Cu   -0.00404   -0.02401    0.02282
 56 Cu    0.00527   -0.00860    0.02725
 57 Cu   -0.01071   -0.02085    0.01954
 58 Cu   -0.00503   -0.00193   -0.02033
 59 Cu   -0.01919   -0.00640   -0.00567
 60 Cu    0.00827   -0.01562    0.00770
 61 Cu   -0.00578    0.00394   -0.00627
 62 Cu    0.02925   -0.02067    0.01982
 63 Cu   -0.00616    0.00190   -0.00780
 64 Cu   -0.01042   -0.00044   -0.01978
 65 Cu    0.00515   -0.00178   -0.02207
 66 Cu   -0.00885    0.01058    0.01289
 67 Cu    0.01768   -0.00649   -0.00383
 68 Cu   -0.00808   -0.00050   -0.00871
 69 Cu   -0.00233    0.01060   -0.00531
 70 Cu   -0.02766    0.00529   -0.00274
 71 Cu    0.00363   -0.00751    0.00469
 72 Cu    0.00115   -0.00162   -0.01297
 73 Cu    0.00756    0.00704    0.00045
 74 Cu   -0.00093    0.01000    0.01107
 75 Cu    0.01126    0.00096   -0.02112
 76 Cu   -0.00148    0.00074   -0.00716
 77 Cu    0.00137    0.00134    0.00932
 78 Cu    0.00201   -0.01384   -0.01648
 79 Cu    0.00906   -0.00425    0.00408
 80 Cu    0.00517   -0.00549    0.00315
 81 Cu   -0.00571   -0.00544   -0.01020
 82 Cu    0.00400   -0.00854    0.01972
 83 Cu   -0.00755   -0.00726    0.03343
 84 Cu   -0.00003    0.00063   -0.00978
 85 Cu   -0.01376   -0.02000   -0.03593
 86 Cu    0.02669   -0.00162    0.01000
 87 Cu    0.00900    0.00337    0.00525
 88 Cu   -0.01493   -0.00709   -0.02946
 89 Cu    0.00835    0.02479   -0.00556
 90 Cu    0.01798   -0.02741   -0.02102
 91 Cu    0.01161   -0.00077   -0.01316
 92 Cu   -0.00193    0.00034    0.02624
 93 Cu   -0.00842   -0.00660    0.00494
 94 Cu   -0.00369    0.03638   -0.00620
 95 Cu    0.01148   -0.00817   -0.01569
 96 Cl    0.08168   -0.02153   -0.01965
 97 Cl   -0.08127    0.02085    0.02288

System changes: positions 

Initializing position-dependent things.

Density initialized from wave functions
      .----------------------------.  
     /|                            |  
    / |                            |  
   /  |                            |  
  /   |                            |  
 *    |                            |  
 |    |                            |  
 |    |                            |  
 |    |                            |  
 |    |                            |  
 |    |                            |  
 |    |                            |  
 |    |                            |  
 |    |     Cl                     |  
 |    |       Cu            CCu    |  
 |    | Cu             Cu          |  
 |    |     Cu   Cu    Cu Cu   CCu |  
 |    Cu   Cu       Cu    Cu   Cu  |  
 |    Cu   Cu Cu    Cu    Cu Cu    |  
 |   Cu  Cu   Cu    Cu       Cu    |  
 |    |  Cu   Cu       Cu    Cu   Cu  
 | Cu | Cu    Cu       Cu    Cu    |  
 | Cu | Cu  CuCu Cu    Cu   Cu     |  
 |    | Cu  Cu   Cu    Cu Cu    Cu |  
 |    Cu   Cu    Cu Cu    Cu   Cu  |  
 |    Cu   Cu  Cu   Cu    Cu       |  
 |   Cu        Cu   Cu    Cu Cu    |  
 |    |  Cu   Cu    Cu Cu    Cu    |  
 |    |  Cu   Cu       Cu    Cu    |  
 | Cu | Cu    Cu Cu    Cu          |  
 |    |     Cu   Cu       Cu    Cu |  
 |    Cu   Cu             Cu       |  
 |    Cu            Cu       Cu    |  
 |    |                            |  
 |    |                 CuCl       |  
 |    |                            |  
 |    |                            |  
 |    |                            |  
 |    |                            |  
 |    |                            |  
 |    |                            |  
 |    .----------------------------.  
 |   /                            /   
 |  /                            /    
 | /                            /     
 |/                            /      
 *----------------------------*       

Positions:
   0 Cu     3.154015   -0.017522   10.112585    ( 0.0000,  0.0000,  0.0000)
   1 Cu     1.465040    1.848326   10.669802    ( 0.0000,  0.0000,  0.0000)
   2 Cu     7.216596    1.846331   10.633760    ( 0.0000,  0.0000,  0.0000)
   3 Cu     9.074134    0.117500    9.990183    ( 0.0000,  0.0000,  0.0000)
   4 Cu    11.420194    0.016608   11.201718    ( 0.0000,  0.0000,  0.0000)
   5 Cu     9.658704    1.847368   11.814806    ( 0.0000,  0.0000,  0.0000)
   6 Cu     3.865631    1.848569   11.677774    ( 0.0000,  0.0000,  0.0000)
   7 Cu     5.569661   -0.054965   11.120941    ( 0.0000,  0.0000,  0.0000)
   8 Cu     7.905422   -0.014302   12.282146    ( 0.0000,  0.0000,  0.0000)
   9 Cu     6.126162    1.849684   12.903901    ( 0.0000,  0.0000,  0.0000)
  10 Cu     0.268466    1.848158   12.961261    ( 0.0000,  0.0000,  0.0000)
  11 Cu     2.033023    0.000575   12.364479    ( 0.0000,  0.0000,  0.0000)
  12 Cu     4.373912   -0.002083   13.496309    ( 0.0000,  0.0000,  0.0000)
  13 Cu     2.632981    1.846499   14.093014    ( 0.0000,  0.0000,  0.0000)
  14 Cu     8.452870    1.848002   14.115491    ( 0.0000,  0.0000,  0.0000)
  15 Cu    10.203118   -0.022050   13.518625    ( 0.0000,  0.0000,  0.0000)
  16 Cu     0.857931   -0.003058   14.694779    ( 0.0000,  0.0000,  0.0000)
  17 Cu    10.798849    1.852844   15.274338    ( 0.0000,  0.0000,  0.0000)
  18 Cu     4.971779    1.848636   15.248232    ( 0.0000,  0.0000,  0.0000)
  19 Cu     6.722136   -0.009785   14.656390    ( 0.0000,  0.0000,  0.0000)
  20 Cu     9.037252   -0.002489   15.871453    ( 0.0000,  0.0000,  0.0000)
  21 Cu     7.284557    1.849900   16.449481    ( 0.0000,  0.0000,  0.0000)
  22 Cu     1.438505    1.851216   16.433104    ( 0.0000,  0.0000,  0.0000)
  23 Cu     3.204405   -0.000324   15.847560    ( 0.0000,  0.0000,  0.0000)
  24 Cu     5.533566    0.001299   17.014245    ( 0.0000,  0.0000,  0.0000)
  25 Cu     3.775157    1.850010   17.596541    ( 0.0000,  0.0000,  0.0000)
  26 Cu     9.613990    1.848552   17.627317    ( 0.0000,  0.0000,  0.0000)
  27 Cu    11.372205   -0.000280   17.023242    ( 0.0000,  0.0000,  0.0000)
  28 Cu     2.020321    0.004291   18.183720    ( 0.0000,  0.0000,  0.0000)
  29 Cu     0.252877    1.849009   18.766391    ( 0.0000,  0.0000,  0.0000)
  30 Cu     6.097981    1.845443   18.806247    ( 0.0000,  0.0000,  0.0000)
  31 Cu     7.852299    0.001173   18.216965    ( 0.0000,  0.0000,  0.0000)
  32 Cu    10.195557   -0.003018   19.371350    ( 0.0000,  0.0000,  0.0000)
  33 Cu     8.441295    1.848350   19.977380    ( 0.0000,  0.0000,  0.0000)
  34 Cu     2.614323    1.831921   19.949696    ( 0.0000,  0.0000,  0.0000)
  35 Cu     4.354733    0.000832   19.382688    ( 0.0000,  0.0000,  0.0000)
  36 Cu     6.685750   -0.001139   20.565523    ( 0.0000,  0.0000,  0.0000)
  37 Cu     4.913087    1.842505   21.180957    ( 0.0000,  0.0000,  0.0000)
  38 Cu    10.783468    1.852833   21.101922    ( 0.0000,  0.0000,  0.0000)
  39 Cu     0.858736    0.000694   20.520292    ( 0.0000,  0.0000,  0.0000)
  40 Cu     3.122150    0.000956   21.869589    ( 0.0000,  0.0000,  0.0000)
  41 Cu     1.391997    1.872883   22.265036    ( 0.0000,  0.0000,  0.0000)
  42 Cu     7.248400    1.800302   22.348332    ( 0.0000,  0.0000,  0.0000)
  43 Cu     8.996153   -0.000085   21.752899    ( 0.0000,  0.0000,  0.0000)
  44 Cu    11.395326    0.000189   22.814993    ( 0.0000,  0.0000,  0.0000)
  45 Cu     9.664616    1.832773   23.354676    ( 0.0000,  0.0000,  0.0000)
  46 Cu     3.737310    1.967428   23.479148    ( 0.0000,  0.0000,  0.0000)
  47 Cu     5.442182    0.004024   22.890811    ( 0.0000,  0.0000,  0.0000)
  48 Cu     3.151454    3.718608   10.112756    ( 0.0000,  0.0000,  0.0000)
  49 Cu     1.421411    5.551165   10.653479    ( 0.0000,  0.0000,  0.0000)
  50 Cu     7.373204    5.547493   10.578933    ( 0.0000,  0.0000,  0.0000)
  51 Cu     9.079278    3.580973    9.987306    ( 0.0000,  0.0000,  0.0000)
  52 Cu    11.423956    3.678567   11.204001    ( 0.0000,  0.0000,  0.0000)
  53 Cu     9.694064    5.550485   11.600113    ( 0.0000,  0.0000,  0.0000)
  54 Cu     3.820151    5.551480   11.714734    ( 0.0000,  0.0000,  0.0000)
  55 Cu     5.567076    3.750817   11.120181    ( 0.0000,  0.0000,  0.0000)
  56 Cu     7.903070    3.708828   12.287824    ( 0.0000,  0.0000,  0.0000)
  57 Cu     6.129975    5.552505   12.903029    ( 0.0000,  0.0000,  0.0000)
  58 Cu     0.254021    5.550655   12.948439    ( 0.0000,  0.0000,  0.0000)
  59 Cu     2.033147    3.698539   12.366225    ( 0.0000,  0.0000,  0.0000)
  60 Cu     4.374485    3.703065   13.490594    ( 0.0000,  0.0000,  0.0000)
  61 Cu     2.620404    5.554384   14.096397    ( 0.0000,  0.0000,  0.0000)
  62 Cu     8.461761    5.550553   14.085917    ( 0.0000,  0.0000,  0.0000)
  63 Cu    10.202101    3.719451   13.519266    ( 0.0000,  0.0000,  0.0000)
  64 Cu     0.859919    3.702312   14.701678    ( 0.0000,  0.0000,  0.0000)
  65 Cu    10.796290    5.547130   15.284703    ( 0.0000,  0.0000,  0.0000)
  66 Cu     4.963993    5.550251   15.251414    ( 0.0000,  0.0000,  0.0000)
  67 Cu     6.718213    3.705846   14.662054    ( 0.0000,  0.0000,  0.0000)
  68 Cu     9.041229    3.701362   15.872079    ( 0.0000,  0.0000,  0.0000)
  69 Cu     7.282955    5.550158   16.454425    ( 0.0000,  0.0000,  0.0000)
  70 Cu     1.444148    5.551627   16.445141    ( 0.0000,  0.0000,  0.0000)
  71 Cu     3.202168    3.702806   15.841122    ( 0.0000,  0.0000,  0.0000)
  72 Cu     5.531880    3.701380   17.019166    ( 0.0000,  0.0000,  0.0000)
  73 Cu     3.779235    5.553817   17.597220    ( 0.0000,  0.0000,  0.0000)
  74 Cu     9.611931    5.551671   17.620692    ( 0.0000,  0.0000,  0.0000)
  75 Cu    11.377752    3.700119   17.035281    ( 0.0000,  0.0000,  0.0000)
  76 Cu     2.017764    3.698484   18.194144    ( 0.0000,  0.0000,  0.0000)
  77 Cu     0.254845    5.554432   18.773305    ( 0.0000,  0.0000,  0.0000)
  78 Cu     6.093950    5.561188   18.811873    ( 0.0000,  0.0000,  0.0000)
  79 Cu     7.844320    3.702693   18.220271    ( 0.0000,  0.0000,  0.0000)
  80 Cu    10.182989    3.704793   19.374896    ( 0.0000,  0.0000,  0.0000)
  81 Cu     8.441981    5.553367   19.971667    ( 0.0000,  0.0000,  0.0000)
  82 Cu     2.613106    5.573489   19.950261    ( 0.0000,  0.0000,  0.0000)
  83 Cu     4.363407    3.703289   19.353395    ( 0.0000,  0.0000,  0.0000)
  84 Cu     6.689587    3.701648   20.564694    ( 0.0000,  0.0000,  0.0000)
  85 Cu     4.910707    5.565925   21.186528    ( 0.0000,  0.0000,  0.0000)
  86 Cu    10.783578    5.550707   21.103748    ( 0.0000,  0.0000,  0.0000)
  87 Cu     0.844493    3.703144   20.507344    ( 0.0000,  0.0000,  0.0000)
  88 Cu     3.157198    3.704122   21.653385    ( 0.0000,  0.0000,  0.0000)
  89 Cu     1.395878    5.534710   22.267400    ( 0.0000,  0.0000,  0.0000)
  90 Cu     7.245873    5.606735   22.347687    ( 0.0000,  0.0000,  0.0000)
  91 Cu     8.950634    3.702781   21.789948    ( 0.0000,  0.0000,  0.0000)
  92 Cu    11.351394    3.703022   22.798400    ( 0.0000,  0.0000,  0.0000)
  93 Cu     9.662133    5.568853   23.354983    ( 0.0000,  0.0000,  0.0000)
  94 Cu     3.743030    5.437050   23.476083    ( 0.0000,  0.0000,  0.0000)
  95 Cu     5.600127    3.705059   22.834204    ( 0.0000,  0.0000,  0.0000)
  96 Cl     3.319132    3.712711   25.021593    ( 0.0000,  0.0000,  0.0000)
  97 Cl     9.496572    1.839058    8.443694    ( 0.0000,  0.0000,  0.0000)

Unit cell:
           periodic     x           y           z      points  spacing
  1. axis:    yes   11.703590    0.000000    0.000000    70     0.1672
  2. axis:    yes    0.000000    7.402000    0.000000    42     0.1762
  3. axis:    no     0.000000    0.000000   33.459128   192     0.1743

  Lengths:  11.703590   7.402000  33.459128
  Angles:   90.000000  90.000000  90.000000

Effective grid spacing dv^(1/3) = 0.1725

     iter     time        total  log10-change:
                         energy  eigst   dens
iter:   1 14:25:43 -7341.509644  -3.02
iter:   2 14:29:21 -7341.379184  -3.35  -2.65
iter:   3 14:33:00 -7341.325580c -3.85  -2.78
iter:   4 14:36:38 -7341.222118c -4.58  -2.85
iter:   5 14:40:17 -7341.219617c -5.27  -3.39
iter:   6 14:43:53 -7341.219035c -5.15  -3.56
iter:   7 14:47:29 -7341.218720c -6.02  -3.81
iter:   8 14:51:06 -7341.218691c -5.63  -3.93
iter:   9 14:54:43 -7341.218716c -6.62  -4.13c
iter:  10 14:58:23 -7341.218462c -6.10  -4.18c
iter:  11 15:02:01 -7341.218459c -7.24  -4.45c
iter:  12 15:05:39 -7341.218440c -6.94  -4.52c
iter:  13 15:09:17 -7341.218462c -7.24  -4.64c
iter:  14 15:12:56 -7341.218446c -7.70c -4.80c

Converged after 14 iterations.

Dipole moment: (19.976254, -0.183673, 0.000841) |e|*Ang

Energy contributions relative to reference atoms: (reference = -4347169.275539)

Kinetic:       +678.418596
Potential:     -760.256902
External:        +0.000000
XC:            -7257.539043
Entropy (-ST):   -0.935946
Local:           -1.373124
--------------------------
Free energy:   -7341.686419
Extrapolated:  -7341.218446

Showing only first 2 kpts
 Kpt  Band  Eigenvalues  Occupancy
  0   533      0.25423    0.81940
  0   534      0.34589    0.43448
  0   535      0.35815    0.39424
  0   536      0.39133    0.29959

  1   533     -0.07666    1.89993
  1   534     -0.03821    1.85638
  1   535      0.05700    1.66601
  1   536      0.07968    1.59807


Fermi level: 0.21771

No gap

Forces in eV/Ang:
  0 Cu    0.00999    0.00795   -0.01090
  1 Cu    0.01286    0.00000   -0.00862
  2 Cu   -0.02361    0.01808    0.02453
  3 Cu   -0.00993   -0.05377    0.01068
  4 Cu   -0.00847   -0.01339    0.00755
  5 Cu    0.02912    0.01475    0.02102
  6 Cu    0.00059   -0.00106    0.01282
  7 Cu   -0.01586    0.03683    0.02320
  8 Cu   -0.00363   -0.00577    0.02976
  9 Cu    0.00705   -0.00502    0.00793
 10 Cu   -0.00386    0.00645    0.00047
 11 Cu   -0.01658   -0.00312   -0.02060
 12 Cu    0.01540    0.01314   -0.00280
 13 Cu   -0.00377    0.01440   -0.01122
 14 Cu    0.00219    0.00345   -0.04136
 15 Cu   -0.00802   -0.01235   -0.00567
 16 Cu    0.00172   -0.00209   -0.01276
 17 Cu   -0.03673   -0.00780    0.00138
 18 Cu   -0.00420    0.00943   -0.00590
 19 Cu    0.00713    0.01550    0.00204
 20 Cu   -0.00839    0.00035   -0.03114
 21 Cu   -0.01828    0.00487    0.01040
 22 Cu    0.00767   -0.00583    0.02334
 23 Cu   -0.00395    0.00317   -0.01169
[...]
   3 Cu     9.030548    0.021014   10.044235    ( 0.0000,  0.0000,  0.0000)
   4 Cu    11.397514    0.009644   11.171104    ( 0.0000,  0.0000,  0.0000)
   5 Cu     9.659400    1.852088   11.786254    ( 0.0000,  0.0000,  0.0000)
   6 Cu     3.826680    1.849753   11.717266    ( 0.0000,  0.0000,  0.0000)
   7 Cu     5.532467   -0.026830   11.176315    ( 0.0000,  0.0000,  0.0000)
   8 Cu     7.874555    0.007388   12.330824    ( 0.0000,  0.0000,  0.0000)
   9 Cu     6.116712    1.851796   12.906263    ( 0.0000,  0.0000,  0.0000)
  10 Cu     0.257644    1.851079   12.939434    ( 0.0000,  0.0000,  0.0000)
  11 Cu     2.012848    0.000323   12.354883    ( 0.0000,  0.0000,  0.0000)
  12 Cu     4.350817    0.002644   13.529183    ( 0.0000,  0.0000,  0.0000)
  13 Cu     2.611439    1.849109   14.102605    ( 0.0000,  0.0000,  0.0000)
  14 Cu     8.456016    1.851014   14.106545    ( 0.0000,  0.0000,  0.0000)
  15 Cu    10.200268   -0.017705   13.500130    ( 0.0000,  0.0000,  0.0000)
  16 Cu     0.854601    0.000301   14.683880    ( 0.0000,  0.0000,  0.0000)
  17 Cu    10.799972    1.851109   15.254868    ( 0.0000,  0.0000,  0.0000)
  18 Cu     4.955847    1.850762   15.262479    ( 0.0000,  0.0000,  0.0000)
  19 Cu     6.708006   -0.000413   14.679922    ( 0.0000,  0.0000,  0.0000)
  20 Cu     9.045107   -0.000619   15.850734    ( 0.0000,  0.0000,  0.0000)
  21 Cu     7.287362    1.851979   16.442974    ( 0.0000,  0.0000,  0.0000)
  22 Cu     1.434993    1.849498   16.450174    ( 0.0000,  0.0000,  0.0000)
  23 Cu     3.187368    0.000865   15.870879    ( 0.0000,  0.0000,  0.0000)
  24 Cu     5.531064    0.001868   17.026416    ( 0.0000,  0.0000,  0.0000)
  25 Cu     3.775386    1.850863   17.611852    ( 0.0000,  0.0000,  0.0000)
  26 Cu     9.632420    1.850687   17.604217    ( 0.0000,  0.0000,  0.0000)
  27 Cu    11.383894   -0.001767   17.016577    ( 0.0000,  0.0000,  0.0000)
  28 Cu     2.017058    0.000914   18.213044    ( 0.0000,  0.0000,  0.0000)
  29 Cu     0.260705    1.849828   18.781356    ( 0.0000,  0.0000,  0.0000)
  30 Cu     6.111892    1.849705   18.787250    ( 0.0000,  0.0000,  0.0000)
  31 Cu     7.870857   -0.000456   18.189983    ( 0.0000,  0.0000,  0.0000)
  32 Cu    10.210682   -0.003335   19.364030    ( 0.0000,  0.0000,  0.0000)
  33 Cu     8.467033    1.851538   19.942723    ( 0.0000,  0.0000,  0.0000)
  34 Cu     2.617622    1.831869   19.966221    ( 0.0000,  0.0000,  0.0000)
  35 Cu     4.359943    0.000556   19.375211    ( 0.0000,  0.0000,  0.0000)
  36 Cu     6.718042   -0.000686   20.522349    ( 0.0000,  0.0000,  0.0000)
  37 Cu     4.944983    1.856186   21.137836    ( 0.0000,  0.0000,  0.0000)
  38 Cu    10.804741    1.848356   21.109199    ( 0.0000,  0.0000,  0.0000)
  39 Cu     0.863578   -0.001002   20.538595    ( 0.0000,  0.0000,  0.0000)
  40 Cu     3.156078   -0.000576   21.827528    ( 0.0000,  0.0000,  0.0000)
  41 Cu     1.420267    1.857950   22.296782    ( 0.0000,  0.0000,  0.0000)
  42 Cu     7.287701    1.820465   22.294293    ( 0.0000,  0.0000,  0.0000)
  43 Cu     9.014912   -0.003406   21.741178    ( 0.0000,  0.0000,  0.0000)
  44 Cu    11.392135   -0.001724   22.826493    ( 0.0000,  0.0000,  0.0000)
  45 Cu     9.665875    1.848556   23.348125    ( 0.0000,  0.0000,  0.0000)
  46 Cu     3.785127    1.869077   23.422744    ( 0.0000,  0.0000,  0.0000)
  47 Cu     5.518857   -0.000568   22.807173    ( 0.0000,  0.0000,  0.0000)
  48 Cu     3.151495    3.703050   10.120427    ( 0.0000,  0.0000,  0.0000)
  49 Cu     1.425469    5.553175   10.642288    ( 0.0000,  0.0000,  0.0000)
  50 Cu     7.298969    5.552014   10.662133    ( 0.0000,  0.0000,  0.0000)
  51 Cu     9.032393    3.681174   10.044997    ( 0.0000,  0.0000,  0.0000)
  52 Cu    11.397088    3.693691   11.172312    ( 0.0000,  0.0000,  0.0000)
  53 Cu     9.661305    5.551995   11.640361    ( 0.0000,  0.0000,  0.0000)
  54 Cu     3.803262    5.554790   11.727809    ( 0.0000,  0.0000,  0.0000)
  55 Cu     5.530315    3.730245   11.175004    ( 0.0000,  0.0000,  0.0000)
  56 Cu     7.873409    3.694883   12.331057    ( 0.0000,  0.0000,  0.0000)
  57 Cu     6.099799    5.552073   12.947349    ( 0.0000,  0.0000,  0.0000)
  58 Cu     0.250638    5.552451   12.930853    ( 0.0000,  0.0000,  0.0000)
  59 Cu     2.013123    3.703235   12.359849    ( 0.0000,  0.0000,  0.0000)
  60 Cu     4.350974    3.699762   13.526907    ( 0.0000,  0.0000,  0.0000)
  61 Cu     2.607646    5.554755   14.105267    ( 0.0000,  0.0000,  0.0000)
  62 Cu     8.458307    5.550937   14.093870    ( 0.0000,  0.0000,  0.0000)
  63 Cu    10.200466    3.719458   13.503421    ( 0.0000,  0.0000,  0.0000)
  64 Cu     0.854254    3.701654   14.688053    ( 0.0000,  0.0000,  0.0000)
  65 Cu    10.801506    5.550520   15.256650    ( 0.0000,  0.0000,  0.0000)
  66 Cu     4.947608    5.551900   15.279793    ( 0.0000,  0.0000,  0.0000)
  67 Cu     6.706678    3.701680   14.682161    ( 0.0000,  0.0000,  0.0000)
  68 Cu     9.043316    3.700611   15.857654    ( 0.0000,  0.0000,  0.0000)
  69 Cu     7.287657    5.549584   16.442852    ( 0.0000,  0.0000,  0.0000)
  70 Cu     1.434957    5.553196   16.452856    ( 0.0000,  0.0000,  0.0000)
  71 Cu     3.186192    3.700699   15.865412    ( 0.0000,  0.0000,  0.0000)
  72 Cu     5.531434    3.699464   17.026514    ( 0.0000,  0.0000,  0.0000)
  73 Cu     3.773512    5.552016   17.618869    ( 0.0000,  0.0000,  0.0000)
  74 Cu     9.631284    5.550635   17.598729    ( 0.0000,  0.0000,  0.0000)
  75 Cu    11.383894    3.701973   17.019339    ( 0.0000,  0.0000,  0.0000)
  76 Cu     2.018721    3.700366   18.214814    ( 0.0000,  0.0000,  0.0000)
  77 Cu     0.260362    5.551095   18.785494    ( 0.0000,  0.0000,  0.0000)
  78 Cu     6.110438    5.551909   18.789273    ( 0.0000,  0.0000,  0.0000)
  79 Cu     7.862724    3.700704   18.207039    ( 0.0000,  0.0000,  0.0000)
  80 Cu    10.206753    3.702362   19.366737    ( 0.0000,  0.0000,  0.0000)
  81 Cu     8.467164    5.548938   19.940249    ( 0.0000,  0.0000,  0.0000)
  82 Cu     2.617819    5.569295   19.969516    ( 0.0000,  0.0000,  0.0000)
  83 Cu     4.362574    3.700405   19.363083    ( 0.0000,  0.0000,  0.0000)
  84 Cu     6.701431    3.699717   20.562924    ( 0.0000,  0.0000,  0.0000)
  85 Cu     4.943886    5.544454   21.137789    ( 0.0000,  0.0000,  0.0000)
  86 Cu    10.805034    5.550942   21.114227    ( 0.0000,  0.0000,  0.0000)
  87 Cu     0.856657    3.700353   20.529932    ( 0.0000,  0.0000,  0.0000)
  88 Cu     3.158627    3.699341   21.682610    ( 0.0000,  0.0000,  0.0000)
  89 Cu     1.419953    5.541543   22.297997    ( 0.0000,  0.0000,  0.0000)
  90 Cu     7.285581    5.578983   22.292888    ( 0.0000,  0.0000,  0.0000)
  91 Cu     8.990478    3.701746   21.751796    ( 0.0000,  0.0000,  0.0000)
  92 Cu    11.377490    3.699114   22.816593    ( 0.0000,  0.0000,  0.0000)
  93 Cu     9.663849    5.549916   23.352463    ( 0.0000,  0.0000,  0.0000)
  94 Cu     3.787228    5.531663   23.423296    ( 0.0000,  0.0000,  0.0000)
  95 Cu     5.628581    3.698843   22.863294    ( 0.0000,  0.0000,  0.0000)
  96 Cl     4.229543    3.700242   24.948484    ( 0.0000,  0.0000,  0.0000)
  97 Cl     8.590443    1.851257    8.517371    ( 0.0000,  0.0000,  0.0000)

Unit cell:
           periodic     x           y           z      points  spacing
  1. axis:    yes   11.703590    0.000000    0.000000    70     0.1672
  2. axis:    yes    0.000000    7.402000    0.000000    42     0.1762
  3. axis:    no     0.000000    0.000000   33.459128   192     0.1743

  Lengths:  11.703590   7.402000  33.459128
  Angles:   90.000000  90.000000  90.000000

Effective grid spacing dv^(1/3) = 0.1725

     iter     time        total  log10-change:
                         energy  eigst   dens
iter:   1 08:13:01 -7341.387923  -4.14
iter:   2 08:16:52 -7341.378951  -4.89  -3.35
iter:   3 08:20:42 -7341.379111c -5.59  -3.69
iter:   4 08:24:32 -7341.377387c -5.94  -3.68
iter:   5 08:28:22 -7341.376843c -5.92  -3.91
iter:   6 08:32:13 -7341.376740c -6.43  -4.23c
iter:   7 08:36:03 -7341.376739c -7.06  -4.41c
iter:   8 08:39:52 -7341.376752c -7.06  -4.53c
iter:   9 08:43:41 -7341.376755c -7.25  -4.68c
iter:  10 08:47:30 -7341.376739c -7.54c -4.85c

Converged after 10 iterations.

Dipole moment: (21.186454, 0.531640, 0.000176) |e|*Ang

Energy contributions relative to reference atoms: (reference = -4347169.275539)

Kinetic:       +684.518087
Potential:     -764.985739
External:        +0.000000
XC:            -7259.089392
Entropy (-ST):   -0.938187
Local:           -1.350601
--------------------------
Free energy:   -7341.845833
Extrapolated:  -7341.376739

Showing only first 2 kpts
 Kpt  Band  Eigenvalues  Occupancy
  0   533      0.33113    0.75647
  0   534      0.40656    0.44493
  0   535      0.42012    0.39978
  0   536      0.45716    0.29424

  1   533     -0.02116    1.90745
  1   534      0.04005    1.83574
  1   535      0.12005    1.66786
  1   536      0.12916    1.64185


Fermi level: 0.28142

No gap

Forces in eV/Ang:
  0 Cu   -0.00295   -0.00766   -0.00194
  1 Cu   -0.00156   -0.00231   -0.00300
  2 Cu    0.00455   -0.00361   -0.00734
  3 Cu   -0.00900    0.01116   -0.01115
  4 Cu   -0.00178   -0.00697    0.00721
  5 Cu   -0.00128   -0.00177   -0.00447
  6 Cu   -0.00191    0.00157   -0.00990
  7 Cu   -0.00382   -0.00847    0.00235
  8 Cu    0.00158   -0.00428   -0.00244
  9 Cu    0.00132   -0.00109    0.00796
 10 Cu    0.00572    0.00061   -0.00032
 11 Cu   -0.00202    0.00315   -0.00127
 12 Cu   -0.00208    0.00130   -0.00474
 13 Cu   -0.00186    0.00029   -0.00614
 14 Cu   -0.00488    0.00070   -0.00292
 15 Cu    0.00053   -0.00580    0.00315
 16 Cu   -0.00267    0.00280    0.00212
 17 Cu   -0.00651    0.00076    0.00906
 18 Cu    0.00504   -0.00218   -0.00304
 19 Cu    0.00028    0.00284   -0.00388
 20 Cu   -0.00296    0.00355    0.00706
 21 Cu   -0.00174   -0.00349   -0.00075
 22 Cu    0.00167    0.00261    0.00099
 23 Cu    0.00389   -0.00039   -0.00635
 24 Cu    0.00701   -0.00338   -0.00486
 25 Cu    0.00538   -0.00020   -0.00124
 26 Cu   -0.00236   -0.00155    0.00452
 27 Cu   -0.00122    0.00470    0.00312
 28 Cu    0.00504   -0.00091   -0.00182
 29 Cu    0.00146    0.00307   -0.00132
 30 Cu   -0.00307    0.00195    0.00874
 31 Cu    0.00071   -0.00181    0.00668
 32 Cu   -0.00219    0.00213   -0.00324
 33 Cu    0.00078    0.00144    0.00522
 34 Cu    0.00228   -0.00431   -0.00315
 35 Cu    0.00025   -0.00230   -0.00105
 36 Cu   -0.00293    0.00087    0.00640
 37 Cu   -0.00420   -0.00219   -0.00075
 38 Cu    0.00491    0.00407    0.00414
 39 Cu    0.00634    0.00056   -0.00294
 40 Cu   -0.00177    0.00034    0.00243
 41 Cu    0.00196   -0.00742   -0.00248
 42 Cu    0.00309   -0.00529    0.00064
 43 Cu    0.00415    0.00215    0.00063
 44 Cu    0.00171    0.00152    0.00036
 45 Cu    0.00022   -0.00680    0.00470
 46 Cu    0.01246    0.01010    0.01281
 47 Cu    0.00661   -0.00285    0.00092
 48 Cu   -0.00024    0.00636   -0.00202
 49 Cu   -0.00088   -0.00156    0.00130
 50 Cu   -0.00605    0.00285   -0.00044
 51 Cu   -0.01179   -0.00899   -0.01132
 52 Cu   -0.00126    0.00749    0.00348
 53 Cu    0.00271   -0.00001   -0.00086
 54 Cu   -0.00448   -0.00200   -0.00072
 55 Cu   -0.00349    0.00637   -0.00025
 56 Cu    0.00418    0.00328    0.00022
 57 Cu    0.00425   -0.00058   -0.00851
 58 Cu   -0.00636   -0.00062    0.00229
 59 Cu   -0.00454   -0.00413   -0.00470
 60 Cu    0.00012   -0.00094   -0.00543
 61 Cu    0.00307   -0.00201    0.00370
 62 Cu    0.00106    0.00235    0.00156
 63 Cu   -0.00150    0.00527    0.00230
 64 Cu   -0.00145   -0.00316    0.00216
 65 Cu   -0.00474    0.00098    0.00235
 66 Cu   -0.00009    0.00169   -0.00644
 67 Cu    0.00341   -0.00188   -0.00829
 68 Cu   -0.00489    0.00050    0.00295
 69 Cu   -0.00626    0.00356    0.00676
 70 Cu    0.00114   -0.00458   -0.00155
 71 Cu    0.00282    0.00182   -0.00340
 72 Cu    0.00195    0.00327    0.00239
 73 Cu    0.00324   -0.00366   -0.00553
 74 Cu   -0.00378    0.00016    0.00724
 75 Cu   -0.00205   -0.00274    0.00057
 76 Cu    0.00702   -0.00094   -0.00782
 77 Cu    0.00266   -0.00262   -0.00109
 78 Cu    0.00060   -0.00275    0.00460
 79 Cu   -0.00446    0.00216    0.00378
 80 Cu    0.00221   -0.00045    0.00649
 81 Cu    0.00310   -0.00172    0.00501
 82 Cu    0.00017    0.00466   -0.00389
 83 Cu    0.00472   -0.00086    0.00247
 84 Cu   -0.00033    0.00074   -0.00858
 85 Cu   -0.00179    0.00315    0.00284
 86 Cu    0.00236   -0.00300    0.00059
 87 Cu   -0.00455   -0.00057    0.00034
 88 Cu    0.00073    0.00180    0.00484
 89 Cu    0.00197    0.00697   -0.00627
 90 Cu    0.00329    0.00746   -0.00160
 91 Cu    0.00299   -0.00178    0.01027
 92 Cu    0.00334    0.00233    0.00401
 93 Cu    0.00280    0.00816    0.00422
 94 Cu    0.00928   -0.01256    0.01313
 95 Cu   -0.00393    0.00368    0.00876
 96 Cl    0.01763    0.00034    0.00872
 97 Cl   -0.01826   -0.00022   -0.00498

Timing:                                      incl.     excl.
-------------------------------------------------------------------
Density initialized from wave functions:   301.302   301.300   0.4% |
 Symmetrize density:                         0.001     0.001   0.0% |
Forces:                                   2150.752  2150.752   2.6% ||
Hamiltonian:                               376.265     0.517   0.0% |
 Atomic:                                    15.080     3.201   0.0% |
  XC Correction:                            11.879    11.879   0.0% |
 Calculate atomic Hamiltonians:            143.040   143.040   0.2% |
 Communicate:                                7.630     7.630   0.0% |
 Initialize Hamiltonian:                     0.002     0.002   0.0% |
 Poisson:                                    0.248     0.248   0.0% |
 XC 3D grid:                               209.749    29.949   0.0% |
  VdW-DF integral:                         179.800     1.323   0.0% |
   Convolution:                             17.505    17.505   0.0% |
   FFT:                                      6.444     6.444   0.0% |
   gather:                                  52.795    52.795   0.1% |
   hmm1:                                     8.498     8.498   0.0% |
   hmm2:                                     8.529     8.529   0.0% |
   iFFT:                                     6.521     6.521   0.0% |
   potential:                               70.942     0.726   0.0% |
    collect:                                 8.490     8.490   0.0% |
    p1:                                     36.628    36.628   0.0% |
    p2:                                     13.439    13.439   0.0% |
    sum:                                    11.658    11.658   0.0% |
   splines:                                  7.243     7.243   0.0% |
LCAO initialization:                       921.317     0.643   0.0% |
 LCAO eigensolver:                          26.243     0.002   0.0% |
  Blacs Orbital Layouts:                     2.802     0.000   0.0% |
   General diagonalize:                      2.778     2.778   0.0% |
   Redistribute coefs:                       0.016     0.016   0.0% |
   Send coefs to domains:                    0.008     0.008   0.0% |
  Calculate projections:                     0.018     0.018   0.0% |
  Distribute overlap matrix:                23.001     0.001   0.0% |
   Scalapack redistribute:                   0.024     0.024   0.0% |
   blocked summation:                       22.976    22.976   0.0% |
  Potential matrix:                          0.152     0.152   0.0% |
  SparseAtomicCorrection:                    0.029     0.029   0.0% |
  Sum over cells:                            0.239     0.239   0.0% |
 LCAO to grid:                             888.108   888.108   1.1% |
 Set positions (LCAO WFS):                   6.322     0.024   0.0% |
  Basic WFS set positions:                   0.006     0.006   0.0% |
  Basis functions set positions:             0.001     0.001   0.0% |
  P tci:                                     0.000     0.000   0.0% |
  ST tci:                                    1.055     1.055   0.0% |
  Scalapack redistribute:                    0.078     0.078   0.0% |
  blocked summation:                         4.830     4.830   0.0% |
  mktci:                                     0.328     0.328   0.0% |
PWDescriptor:                                1.180     1.180   0.0% |
Redistribute:                                0.027     0.027   0.0% |
SCF-cycle:                               78969.789  1205.204   1.4% ||
 Davidson:                               67423.833 21794.388  26.2% |---------|
  Apply H:                                3935.643  3861.165   4.6% |-|
   HMM T:                                   74.478    74.478   0.1% |
  Subspace diag:                         10106.014     0.077   0.0% |
   calc_h_matrix:                         6148.151  2169.995   2.6% ||
    Apply H:                              3978.156  3885.842   4.7% |-|
     HMM T:                                 92.314    92.314   0.1% |
   diagonalize:                            233.204   233.204   0.3% |
   rotate_psi:                            3724.581  3724.581   4.5% |-|
  calc. matrices:                        22404.975 14823.064  17.8% |------|
   Apply H:                               7581.911  7425.278   8.9% |---|
    HMM T:                                 156.633   156.633   0.2% |
  diagonalize:                            1801.249  1801.249   2.2% ||
  rotate_psi:                             7381.563  7381.563   8.9% |---|
 Density:                                 4535.243     0.021   0.0% |
  Atomic density matrices:                  10.303    10.303   0.0% |
  Mix:                                    2349.626  2349.626   2.8% ||
  Multipole moments:                         0.709     0.709   0.0% |
  Pseudo density:                         2174.584  2174.561   2.6% ||
   Symmetrize density:                       0.023     0.023   0.0% |
 Hamiltonian:                             5254.671     7.065   0.0% |
  Atomic:                                  215.350    47.242   0.1% |
   XC Correction:                          168.108   168.108   0.2% |
  Calculate atomic Hamiltonians:          2043.307  2043.307   2.5% ||
  Communicate:                             102.023   102.023   0.1% |
  Poisson:                                   3.360     3.360   0.0% |
  XC 3D grid:                             2883.567   412.875   0.5% |
   VdW-DF integral:                       2470.692    18.999   0.0% |
    Convolution:                           249.702   249.702   0.3% |
    FFT:                                    91.560    91.560   0.1% |
    gather:                                757.419   757.419   0.9% |
    hmm1:                                  124.089   124.089   0.1% |
    hmm2:                                  120.333   120.333   0.1% |
    iFFT:                                   92.235    92.235   0.1% |
    potential:                            1016.351    10.868   0.0% |
     collect:                              121.934   121.934   0.1% |
     p1:                                   524.647   524.647   0.6% |
     p2:                                   189.016   189.016   0.2% |
     sum:                                  169.887   169.887   0.2% |
    splines:                                 0.004     0.004   0.0% |
 Orthonormalize:                           550.838     0.010   0.0% |
  calc_s_matrix:                            70.948    70.948   0.1% |
  inverse-cholesky:                         12.678    12.678   0.0% |
  projections:                             345.987   345.987   0.4% |
  rotate_psi_s:                            121.214   121.214   0.1% |
Set symmetry:                                0.002     0.002   0.0% |
Other:                                     595.228   595.228   0.7% |
-------------------------------------------------------------------
Total:                                             83315.862 100.0%

Memory usage: 2.45 GiB
Date: Wed Jul 20 08:49:08 2022
