
  ___ ___ ___ _ _ _  
 |   |   |_  | | | | 
 | | | | | . | | | | 
 |__ |  _|___|_____|  22.1.0
 |___|_|             

User:   thorkong@node493.cluster
Date:   Mon Nov  7 23:17:01 2022
Arch:   x86_64
Pid:    11209
Python: 3.10.5
gpaw:   /groups/kemi/thorkong/miniconda3/envs/gpaw22/lib/python3.10/site-packages/gpaw
_gpaw:  /groups/kemi/thorkong/miniconda3/envs/gpaw22/lib/python3.10/site-packages/
        _gpaw.cpython-310-x86_64-linux-gnu.so
ase:    /groups/kemi/thorkong/miniconda3/envs/gpaw22/lib/python3.10/site-packages/ase (version 3.22.1)
numpy:  /groups/kemi/thorkong/miniconda3/envs/gpaw22/lib/python3.10/site-packages/numpy (version 1.23.0)
scipy:  /groups/kemi/thorkong/miniconda3/envs/gpaw22/lib/python3.10/site-packages/scipy (version 1.8.1)
libxc:  5.2.3
units:  Angstrom and eV
cores: 32
OpenMP: True
OMP_NUM_THREADS: 1

Input parameters:
  basis: dzp
  kpts: [4 4 1]
  mode: {ecut: 600.0,
         name: pw}
  xc: BEEF-vdW

System changes: positions, numbers, cell, pbc, initial_charges, initial_magmoms 

Initialize ...

Cu-setup:
  name: Copper
  id: f1c4d45d90492f1bbfdcb091e8418fdf
  Z: 29.0
  valence: 11
  core: 18
  charge: 0.0
  file: /groups/kemi/thorkong/miniconda3/envs/gpaw22/share/gpaw/Cu.PBE.gz
  compensation charges: gauss, rc=0.33, lmax=2
  cutoffs: 2.06(filt), 2.43(core),
  valence states:
                energy  radius
    4s(1.00)    -4.609   1.164
    4p(0.00)    -0.698   1.164
    3d(10.00)    -5.039   1.058
    *s          22.603   1.164
    *p          26.513   1.164
    *d          22.172   1.058

  LCAO basis set for Cu:
    Name: dzp
    File: /groups/kemi/thorkong/miniconda3/envs/gpaw22/share/gpaw/Cu.dzp.basis.gz
    Number of radial functions: 5
    Number of spherical harmonics: 15
      l=0, rc=8.9688 Bohr: 4s-sz confined orbital
      l=2, rc=5.1719 Bohr: 3d-sz confined orbital
      l=0, rc=5.3281 Bohr: 4s-dz split-valence wave
      l=2, rc=3.1406 Bohr: 3d-dz split-valence wave
      l=1, rc=8.9688 Bohr: p-type Gaussian polarization

Cl-setup:
  name: Chlorine
  id: 726897f06f34e53cf8e33b5885a02604
  Z: 17.0
  valence: 7
  core: 10
  charge: 0.0
  file: /groups/kemi/thorkong/miniconda3/envs/gpaw22/share/gpaw/Cl.PBE.gz
  compensation charges: gauss, rc=0.25, lmax=2
  cutoffs: 1.40(filt), 1.49(core),
  valence states:
                energy  radius
    3s(2.00)   -20.689   0.794
    3p(5.00)    -8.594   0.794
    *s           6.523   0.794
    *p          18.617   0.794
    *d           0.000   0.794

  LCAO basis set for Cl:
    Name: dzp
    File: /groups/kemi/thorkong/miniconda3/envs/gpaw22/share/gpaw/Cl.dzp.basis.gz
    Number of radial functions: 5
    Number of spherical harmonics: 13
      l=0, rc=5.1719 Bohr: 3s-sz confined orbital
      l=1, rc=6.2656 Bohr: 3p-sz confined orbital
      l=0, rc=2.8281 Bohr: 3s-dz split-valence wave
      l=1, rc=3.5156 Bohr: 3p-dz split-valence wave
      l=2, rc=6.2656 Bohr: d-type Gaussian polarization

Reference energy: -4347169.275539

Spin-paired calculation

Convergence criteria:
 Maximum [total energy] change in last 3 cyles: 0.0005 eV / electron
 Maximum integral of absolute [dens]ity change: 0.0001 electrons / valence electron
 Maximum integral of absolute [eigenst]ate change: 4e-08 eV^2 / valence electron
 Maximum number of scf [iter]ations: 333
 (Square brackets indicate name in SCF output, whereas a 'c' in
 the SCF output indicates the quantity has converged.)

Symmetries present (total): 1

  ( 1  0  0)
  ( 0  1  0)
  ( 0  0  1)

16 k-points: 4 x 4 x 1 Monkhorst-Pack grid
8 k-points in the irreducible part of the Brillouin zone
       k-points in crystal coordinates                weights
   0:     0.12500000   -0.37500000    0.00000000          2/16
   1:     0.12500000   -0.12500000    0.00000000          2/16
   2:     0.12500000    0.12500000    0.00000000          2/16
   3:     0.12500000    0.37500000    0.00000000          2/16
   4:     0.37500000   -0.37500000    0.00000000          2/16
   5:     0.37500000   -0.12500000    0.00000000          2/16
   6:     0.37500000    0.12500000    0.00000000          2/16
   7:     0.37500000    0.37500000    0.00000000          2/16

Wave functions: Plane wave expansion
  Cutoff energy: 600.000 eV
  Number of coefficients (min, max): 96699, 96750
  Pulay-stress correction: 0.000000 eV/Ang^3 (de/decut=0.000000)
  Using FFTW library
  ScaLapack parameters: grid=2x2, blocksize=64
  Wavefunction extrapolation:
    Improved wavefunction reuse through dual PAW basis 

Occupation numbers: Fermi-Dirac: width=0.1000 eV
 

Eigensolver
   Davidson(niter=2) 

Densities:
  Coarse grid: 70*42*192 grid
  Fine grid: 140*84*384 grid
  Total Charge: 0.000000 

Density mixing:
  Method: separate
  Backend: pulay
  Linear mixing parameter: 0.05
  Mixing with 5 old densities
  Damping of long wave oscillations: 50 

Hamiltonian:
  XC and Coulomb potentials evaluated on a 140*84*384 grid
  Using the BEEF-vdW Exchange-Correlation functional
  External potential:
    NoExternalPotential
 

XC parameters: BEEF-vdW with 2 nearest neighbor stencil

Memory estimate:
  Process memory now: 345.13 MiB
  Calculator: 2098.58 MiB
    Density: 70.86 MiB
      Arrays: 27.99 MiB
      Localized functions: 32.10 MiB
      Mixer: 10.77 MiB
    Hamiltonian: 19.09 MiB
      Arrays: 18.30 MiB
      XC: 0.00 MiB
      Poisson: 0.00 MiB
      vbar: 0.78 MiB
    Wavefunctions: 2008.63 MiB
      Arrays psit_nG: 953.68 MiB
      Eigensolver: 1024.76 MiB
      Projections: 4.32 MiB
      Projectors: 3.69 MiB
      PW-descriptor: 22.18 MiB

Total number of cores used: 32
Parallelization over k-points: 8
Domain decomposition: 1 x 1 x 4
                      2 x 2 x 8 (xc only)

Number of atoms: 98
Number of atomic orbitals: 1466
Number of bands in calculation: 646
Number of valence electrons: 1070
Bands to converge: occupied

... initialized

Initializing position-dependent things.

Density initialized from atomic densities
Creating initial wave functions:
  646 bands from LCAO basis set

      .----------------------------.  
     /|                            |  
    / |                            |  
   /  |                            |  
  /   |                            |  
 *    |                            |  
 |    |                            |  
 |    |                            |  
 |    |                            |  
 |    |                            |  
 |    |                            |  
 |    |                            |  
 |    |                            |  
 |    |       Cl    Cu            Cu  
 |    |       Cu            CCu    |  
 |    | Cu       Cu    Cu          |  
 |    | Cu  Cu   Cu    Cu Cu    Cu |  
 |    Cu   Cu       Cu    Cu   Cu  |  
 |    Cu   Cu       Cu    Cu       |  
 |   Cu        Cu   Cu    Cu Cu    |  
 |    |  Cu   Cu       Cu    Cu   Cu  
 |    |  Cu   Cu       Cu    Cu    |  
 | Cu | Cu  Cu   Cu    Cu   Cu     |  
 |    |     Cu   Cu    Cu Cu    Cu |  
 |    Cu   Cu    Cu       Cu   CCu |  
 |    Cu   Cu  Cu   Cu    Cu       |  
 |   CCu       Cu   Cu       Cu    |  
 |    |  Cu   Cu    Cu Cu    Cu    |  
 | Cu | Cu    Cu       Cu    Cu    |  
 | Cu | Cu  Cu   Cu    Cu          |  
 |    |     Cu   Cu       Cu    Cu |  
 |    Cu   Cu        Cu   Cu       |  
 |    Cu            Cu       Cu    |  
 |    |                            |  
 |    |  Cu            Cul         |  
 |    |                            |  
 |    |                            |  
 |    |                            |  
 |    |                            |  
 |    |                            |  
 |    |                            |  
 |    .----------------------------.  
 |   /                            /   
 |  /                            /    
 | /                            /     
 |/                            /      
 *----------------------------*       

Positions:
   0 Cu     3.153614    0.001320   10.116203    ( 0.0000,  0.0000,  0.0000)
   1 Cu     1.439736    1.852294   10.652420    ( 0.0000,  0.0000,  0.0000)
   2 Cu     7.189868    1.852609   10.604916    ( 0.0000,  0.0000,  0.0000)
   3 Cu     9.030548    0.021014   10.044235    ( 0.0000,  0.0000,  0.0000)
   4 Cu    11.397514    0.009644   11.171104    ( 0.0000,  0.0000,  0.0000)
   5 Cu     9.659400    1.852088   11.786254    ( 0.0000,  0.0000,  0.0000)
   6 Cu     3.826680    1.849753   11.717266    ( 0.0000,  0.0000,  0.0000)
   7 Cu     5.532467   -0.026830   11.176315    ( 0.0000,  0.0000,  0.0000)
   8 Cu     7.874555    0.007388   12.330824    ( 0.0000,  0.0000,  0.0000)
   9 Cu     6.116712    1.851796   12.906263    ( 0.0000,  0.0000,  0.0000)
  10 Cu     0.257644    1.851079   12.939434    ( 0.0000,  0.0000,  0.0000)
  11 Cu     2.012848    0.000323   12.354883    ( 0.0000,  0.0000,  0.0000)
  12 Cu     4.350817    0.002644   13.529183    ( 0.0000,  0.0000,  0.0000)
  13 Cu     2.611439    1.849109   14.102605    ( 0.0000,  0.0000,  0.0000)
  14 Cu     8.456016    1.851014   14.106545    ( 0.0000,  0.0000,  0.0000)
  15 Cu    10.200268   -0.017705   13.500130    ( 0.0000,  0.0000,  0.0000)
  16 Cu     0.854601    0.000301   14.683880    ( 0.0000,  0.0000,  0.0000)
  17 Cu    10.799972    1.851109   15.254868    ( 0.0000,  0.0000,  0.0000)
  18 Cu     4.955847    1.850762   15.262479    ( 0.0000,  0.0000,  0.0000)
  19 Cu     6.708006   -0.000413   14.679922    ( 0.0000,  0.0000,  0.0000)
  20 Cu     9.045107   -0.000619   15.850734    ( 0.0000,  0.0000,  0.0000)
  21 Cu     7.287362    1.851979   16.442974    ( 0.0000,  0.0000,  0.0000)
  22 Cu     1.434993    1.849498   16.450174    ( 0.0000,  0.0000,  0.0000)
  23 Cu     3.187368    0.000865   15.870879    ( 0.0000,  0.0000,  0.0000)
  24 Cu     5.531064    0.001868   17.026416    ( 0.0000,  0.0000,  0.0000)
  25 Cu     3.775386    1.850863   17.611852    ( 0.0000,  0.0000,  0.0000)
  26 Cu     9.632420    1.850687   17.604217    ( 0.0000,  0.0000,  0.0000)
  27 Cu    11.383894   -0.001767   17.016577    ( 0.0000,  0.0000,  0.0000)
  28 Cu     2.017058    0.000914   18.213044    ( 0.0000,  0.0000,  0.0000)
  29 Cu     0.260705    1.849828   18.781356    ( 0.0000,  0.0000,  0.0000)
  30 Cu     6.111892    1.849705   18.787250    ( 0.0000,  0.0000,  0.0000)
  31 Cu     7.870857   -0.000456   18.189983    ( 0.0000,  0.0000,  0.0000)
  32 Cu    10.210682   -0.003335   19.364030    ( 0.0000,  0.0000,  0.0000)
  33 Cu     8.467033    1.851538   19.942723    ( 0.0000,  0.0000,  0.0000)
  34 Cu     2.617622    1.831869   19.966221    ( 0.0000,  0.0000,  0.0000)
  35 Cu     4.359943    0.000556   19.375211    ( 0.0000,  0.0000,  0.0000)
  36 Cu     6.718042   -0.000686   20.522349    ( 0.0000,  0.0000,  0.0000)
  37 Cu     4.944983    1.856186   21.137836    ( 0.0000,  0.0000,  0.0000)
  38 Cu    10.804741    1.848356   21.109199    ( 0.0000,  0.0000,  0.0000)
  39 Cu     0.863578   -0.001002   20.538595    ( 0.0000,  0.0000,  0.0000)
  40 Cu     3.156078   -0.000576   21.827528    ( 0.0000,  0.0000,  0.0000)
  41 Cu     1.420267    1.857950   22.296782    ( 0.0000,  0.0000,  0.0000)
  42 Cu     7.287701    1.820465   22.294293    ( 0.0000,  0.0000,  0.0000)
  43 Cu     9.014912   -0.003406   21.741178    ( 0.0000,  0.0000,  0.0000)
  44 Cu    11.392135   -0.001724   22.826493    ( 0.0000,  0.0000,  0.0000)
  45 Cu     9.665875    1.848556   23.348125    ( 0.0000,  0.0000,  0.0000)
  46 Cu     3.785127    1.869077   23.422744    ( 0.0000,  0.0000,  0.0000)
  47 Cu     5.518857   -0.000568   22.807173    ( 0.0000,  0.0000,  0.0000)
  48 Cu     3.151495    3.703050   10.120427    ( 0.0000,  0.0000,  0.0000)
  49 Cu     1.425469    5.553175   10.642288    ( 0.0000,  0.0000,  0.0000)
  50 Cu     7.298969    5.552014   10.662133    ( 0.0000,  0.0000,  0.0000)
  51 Cu     9.032393    3.681174   10.044997    ( 0.0000,  0.0000,  0.0000)
  52 Cu    11.397088    3.693691   11.172312    ( 0.0000,  0.0000,  0.0000)
  53 Cu     9.661305    5.551995   11.640361    ( 0.0000,  0.0000,  0.0000)
  54 Cu     3.803262    5.554790   11.727809    ( 0.0000,  0.0000,  0.0000)
  55 Cu     5.530315    3.730245   11.175004    ( 0.0000,  0.0000,  0.0000)
  56 Cu     7.873409    3.694883   12.331057    ( 0.0000,  0.0000,  0.0000)
  57 Cu     6.099799    5.552073   12.947349    ( 0.0000,  0.0000,  0.0000)
  58 Cu     0.250638    5.552451   12.930853    ( 0.0000,  0.0000,  0.0000)
  59 Cu     2.013123    3.703235   12.359849    ( 0.0000,  0.0000,  0.0000)
  60 Cu     4.350974    3.699762   13.526907    ( 0.0000,  0.0000,  0.0000)
  61 Cu     2.607646    5.554755   14.105267    ( 0.0000,  0.0000,  0.0000)
  62 Cu     8.458307    5.550937   14.093870    ( 0.0000,  0.0000,  0.0000)
  63 Cu    10.200466    3.719458   13.503421    ( 0.0000,  0.0000,  0.0000)
  64 Cu     0.854254    3.701654   14.688053    ( 0.0000,  0.0000,  0.0000)
  65 Cu    10.801506    5.550520   15.256650    ( 0.0000,  0.0000,  0.0000)
  66 Cu     4.947608    5.551900   15.279793    ( 0.0000,  0.0000,  0.0000)
  67 Cu     6.706678    3.701680   14.682161    ( 0.0000,  0.0000,  0.0000)
  68 Cu     9.043316    3.700611   15.857654    ( 0.0000,  0.0000,  0.0000)
  69 Cu     7.287657    5.549584   16.442852    ( 0.0000,  0.0000,  0.0000)
  70 Cu     1.434957    5.553196   16.452856    ( 0.0000,  0.0000,  0.0000)
  71 Cu     3.186192    3.700699   15.865412    ( 0.0000,  0.0000,  0.0000)
  72 Cu     5.531434    3.699464   17.026514    ( 0.0000,  0.0000,  0.0000)
  73 Cu     3.773512    5.552016   17.618869    ( 0.0000,  0.0000,  0.0000)
  74 Cu     9.631284    5.550635   17.598729    ( 0.0000,  0.0000,  0.0000)
  75 Cu    11.383894    3.701973   17.019339    ( 0.0000,  0.0000,  0.0000)
  76 Cu     2.018721    3.700366   18.214814    ( 0.0000,  0.0000,  0.0000)
  77 Cu     0.260362    5.551095   18.785494    ( 0.0000,  0.0000,  0.0000)
  78 Cu     6.110438    5.551909   18.789273    ( 0.0000,  0.0000,  0.0000)
  79 Cu     7.862724    3.700704   18.207039    ( 0.0000,  0.0000,  0.0000)
  80 Cu    10.206753    3.702362   19.366737    ( 0.0000,  0.0000,  0.0000)
  81 Cu     8.467164    5.548938   19.940249    ( 0.0000,  0.0000,  0.0000)
  82 Cu     2.617819    5.569295   19.969516    ( 0.0000,  0.0000,  0.0000)
  83 Cu     4.362574    3.700405   19.363083    ( 0.0000,  0.0000,  0.0000)
  84 Cu     6.701431    3.699717   20.562924    ( 0.0000,  0.0000,  0.0000)
  85 Cu     4.943886    5.544454   21.137789    ( 0.0000,  0.0000,  0.0000)
  86 Cu    10.805034    5.550942   21.114227    ( 0.0000,  0.0000,  0.0000)
  87 Cu     0.856657    3.700353   20.529932    ( 0.0000,  0.0000,  0.0000)
  88 Cu     3.158627    3.699341   21.682610    ( 0.0000,  0.0000,  0.0000)
  89 Cu     1.419953    5.541543   22.297997    ( 0.0000,  0.0000,  0.0000)
  90 Cu     7.285581    5.578983   22.292888    ( 0.0000,  0.0000,  0.0000)
  91 Cu     8.990478    3.701746   21.751796    ( 0.0000,  0.0000,  0.0000)
  92 Cu    11.377490    3.699114   22.816593    ( 0.0000,  0.0000,  0.0000)
  93 Cu     9.663849    5.549916   23.352463    ( 0.0000,  0.0000,  0.0000)
  94 Cu     3.787228    5.531663   23.423296    ( 0.0000,  0.0000,  0.0000)
  95 Cu     5.628581    3.698843   22.863294    ( 0.0000,  0.0000,  0.0000)
  96 Cl     4.229543    3.700242   24.948484    ( 0.0000,  0.0000,  0.0000)
  97 Cl     8.590443    1.851257    8.517371    ( 0.0000,  0.0000,  0.0000)

Unit cell:
           periodic     x           y           z      points  spacing
  1. axis:    yes   11.703590    0.000000    0.000000    70     0.1672
  2. axis:    yes    0.000000    7.402000    0.000000    42     0.1762
  3. axis:    no     0.000000    0.000000   33.459128   192     0.1743

  Lengths:  11.703590   7.402000  33.459128
  Angles:   90.000000  90.000000  90.000000

Effective grid spacing dv^(1/3) = 0.1725

     iter     time        total  log10-change:
                         energy  eigst   dens
iter:   1 23:37:20 -7406.053039
iter:   2 23:40:42 -7400.248243  -0.96  -1.17
iter:   3 23:44:06 -7384.188353  -0.99  -1.22
iter:   4 23:47:30 -7357.777321  -1.24  -1.29
iter:   5 23:50:54 -7352.209532  -1.59  -1.47
iter:   6 23:54:18 -7358.568435  -1.98  -1.61
iter:   7 23:57:44 -7345.817542  -2.26  -1.61
iter:   8 00:01:09 -7343.459263  -2.29  -1.73
iter:   9 00:04:34 -7344.783723  -1.82  -1.78
iter:  10 00:07:58 -7342.382783  -2.09  -2.04
iter:  11 00:11:25 -7341.832742  -3.23  -2.24
iter:  12 00:14:51 -7341.678214  -3.19  -2.38
iter:  13 00:18:18 -7341.477021c -3.03  -2.51
iter:  14 00:21:46 -7341.453638c -3.48  -2.72
iter:  15 00:25:11 -7341.420320c -4.07  -2.89
iter:  16 00:28:36 -7341.395218c -4.47  -2.97
iter:  17 00:32:02 -7341.389805c -3.96  -3.07
iter:  18 00:35:28 -7341.384860c -4.71  -3.14
iter:  19 00:38:54 -7341.383607c -4.79  -3.20
iter:  20 00:42:20 -7341.380365c -5.24  -3.30
iter:  21 00:45:46 -7341.377456c -5.14  -3.53
iter:  22 00:49:11 -7341.377030c -6.03  -3.77
iter:  23 00:52:37 -7341.376855c -6.85  -3.83
iter:  24 00:56:05 -7341.376756c -5.98  -3.89
iter:  25 00:59:33 -7341.376867c -6.20  -4.10c
iter:  26 01:03:00 -7341.376781c -7.06  -4.18c
iter:  27 01:06:29 -7341.376750c -7.09  -4.26c
iter:  28 01:09:59 -7341.376732c -7.13  -4.41c
iter:  29 01:13:29 -7341.376730c -7.47c -4.52c

Converged after 29 iterations.

Dipole moment: (21.187115, 0.531682, 0.002716) |e|*Ang

Energy contributions relative to reference atoms: (reference = -4347169.275539)

Kinetic:       +688.596972
Potential:     -768.823625
External:        +0.000000
XC:            -7259.226537
Entropy (-ST):   -0.938219
Local:           -1.454430
--------------------------
Free energy:   -7341.845839
Extrapolated:  -7341.376730

Showing only first 2 kpts
 Kpt  Band  Eigenvalues  Occupancy
  0   533      0.33128    0.75664
  0   534      0.40682    0.44469
  0   535      0.42034    0.39968
  0   536      0.45739    0.29414

  1   533     -0.02102    1.90750
  1   534      0.04029    1.83566
  1   535      0.12026    1.66780
  1   536      0.12943    1.64160


Fermi level: 0.28161

No gap

Forces in eV/Ang:
  0 Cu   -0.00396   -0.00798    0.00422
  1 Cu    0.00012   -0.00232    0.00058
  2 Cu    0.00301   -0.00413   -0.00066
  3 Cu   -0.00873    0.00940   -0.00803
  4 Cu   -0.00013   -0.00609    0.00857
  5 Cu   -0.00039   -0.00180   -0.00585
  6 Cu   -0.00351    0.00173   -0.01361
  7 Cu   -0.00385   -0.00899    0.00307
  8 Cu    0.00155   -0.00362   -0.00649
  9 Cu    0.00122   -0.00108    0.00479
 10 Cu    0.00623    0.00107   -0.00126
 11 Cu   -0.00121    0.00364   -0.00445
 12 Cu   -0.00155    0.00149   -0.00627
 13 Cu   -0.00223    0.00060   -0.00620
 14 Cu   -0.00584    0.00058   -0.00226
 15 Cu    0.00140   -0.00598    0.00453
 16 Cu   -0.00342    0.00345    0.00165
 17 Cu   -0.00694    0.00049    0.00907
 18 Cu    0.00631   -0.00246   -0.00587
 19 Cu    0.00053    0.00344   -0.00529
 20 Cu   -0.00389    0.00371    0.00677
 21 Cu   -0.00207   -0.00368   -0.00189
 22 Cu    0.00169    0.00315   -0.00091
 23 Cu    0.00413   -0.00046   -0.00948
 24 Cu    0.00687   -0.00387   -0.00634
 25 Cu    0.00574   -0.00029   -0.00309
 26 Cu   -0.00293   -0.00130    0.00397
 27 Cu   -0.00181    0.00538    0.00283
 28 Cu    0.00570   -0.00108   -0.00395
 29 Cu    0.00195    0.00368   -0.00367
 30 Cu   -0.00323    0.00215    0.00732
 31 Cu    0.00037   -0.00187    0.00678
 32 Cu   -0.00161    0.00241   -0.00588
 33 Cu    0.00081    0.00152    0.00374
 34 Cu    0.00180   -0.00442   -0.00651
 35 Cu    0.00006   -0.00245   -0.00578
 36 Cu   -0.00248    0.00081    0.00640
 37 Cu   -0.00472   -0.00080    0.00317
 38 Cu    0.00449    0.00429    0.00746
 39 Cu    0.00547    0.00102   -0.00638
 40 Cu    0.00031    0.00054    0.00800
 41 Cu    0.00214   -0.00672   -0.00667
 42 Cu    0.00352   -0.00501   -0.00294
 43 Cu    0.00729    0.00249    0.00292
 44 Cu   -0.00305    0.00150   -0.00672
 45 Cu    0.00149   -0.00721   -0.00454
 46 Cu    0.01270    0.01017    0.01034
 47 Cu    0.00247   -0.00300   -0.00284
 48 Cu   -0.00105    0.00660    0.00426
 49 Cu    0.00230   -0.00158    0.00627
 50 Cu   -0.00432    0.00299    0.00015
 51 Cu   -0.01114   -0.00737   -0.00877
 52 Cu    0.00005    0.00648    0.00440
 53 Cu    0.00215   -0.00019   -0.00489
 54 Cu   -0.00718   -0.00236   -0.00272
 55 Cu   -0.00329    0.00655    0.00072
 56 Cu    0.00465    0.00234   -0.00378
 57 Cu    0.00376   -0.00055   -0.01054
 58 Cu   -0.00551   -0.00115    0.00304
 59 Cu   -0.00363   -0.00450   -0.00809
 60 Cu    0.00030   -0.00110   -0.00782
 61 Cu    0.00233   -0.00223    0.00372
 62 Cu    0.00095    0.00246    0.00337
 63 Cu   -0.00094    0.00523    0.00347
 64 Cu   -0.00203   -0.00367    0.00187
 65 Cu   -0.00567    0.00117    0.00171
 66 Cu    0.00010    0.00176   -0.01025
 67 Cu    0.00372   -0.00221   -0.00965
 68 Cu   -0.00559    0.00053    0.00218
 69 Cu   -0.00611    0.00406    0.00575
 70 Cu    0.00139   -0.00521   -0.00359
 71 Cu    0.00331    0.00154   -0.00635
 72 Cu    0.00218    0.00345    0.00071
 73 Cu    0.00399   -0.00379   -0.00809
 74 Cu   -0.00411    0.00023    0.00725
 75 Cu   -0.00260   -0.00335   -0.00019
 76 Cu    0.00737   -0.00067   -0.01042
 77 Cu    0.00343   -0.00337   -0.00328
 78 Cu    0.00048   -0.00324    0.00334
 79 Cu   -0.00590    0.00244    0.00359
 80 Cu    0.00262   -0.00083    0.00416
 81 Cu    0.00274   -0.00187    0.00309
 82 Cu   -0.00068    0.00500   -0.00752
 83 Cu    0.00524   -0.00069   -0.00112
 84 Cu   -0.00103    0.00073   -0.00601
 85 Cu   -0.00175    0.00202    0.00679
 86 Cu    0.00204   -0.00334    0.00348
 87 Cu   -0.00489   -0.00098   -0.00062
 88 Cu    0.00051    0.00180    0.00527
 89 Cu    0.00185    0.00639   -0.01080
 90 Cu    0.00402    0.00754   -0.00468
 91 Cu    0.00501   -0.00193    0.01438
 92 Cu   -0.00006    0.00243   -0.00191
 93 Cu    0.00426    0.00863   -0.00483
 94 Cu    0.00977   -0.01241    0.01007
 95 Cu   -0.00483    0.00419    0.00154
 96 Cl    0.00654   -0.00095    0.02865
 97 Cl   -0.00798    0.00098   -0.01935

System changes: positions 

Initializing position-dependent things.

Density initialized from wave functions
      .----------------------------.  
     /|                            |  
    / |                            |  
   /  |                            |  
  /   |                            |  
 *    |                            |  
 |    |                            |  
 |    |                            |  
 |    |                            |  
 |    |                            |  
 |    |                            |  
 |    |                            |  
 |    |                            |  
 |    |       Cl    Cu            Cu  
 |    |       Cu            CCu    |  
 |    | Cu       Cu    Cu          |  
 |    | Cu  Cu   Cu    Cu Cu    Cu |  
 |    Cu   Cu       Cu    Cu   Cu  |  
 |    Cu   Cu       Cu    Cu       |  
 |   Cu        Cu   Cu    Cu Cu    |  
 |    |  Cu   Cu       Cu    Cu   Cu  
 |    |  Cu   Cu       Cu    Cu    |  
 | Cu | Cu  Cu   Cu    Cu   Cu     |  
 |    |     Cu   Cu    Cu Cu    Cu |  
 |    Cu   Cu    Cu       Cu   CCu |  
 |    Cu   Cu  Cu   Cu    Cu       |  
 |   CCu       Cu   Cu       Cu    |  
 |    |  Cu   Cu    Cu Cu    Cu    |  
 | Cu | Cu    Cu       Cu    Cu    |  
 | Cu | Cu  Cu   Cu    Cu          |  
 |    |     Cu   Cu       Cu    Cu |  
 |    Cu   Cu        Cu   Cu       |  
 |    Cu            Cu       Cu    |  
 |    |                            |  
 |    |  Cu            Cul         |  
 |    |                            |  
 |    |                            |  
 |    |                            |  
 |    |                            |  
 |    |                            |  
 |    |                            |  
 |    .----------------------------.  
 |   /                            /   
 |  /                            /    
 | /                            /     
 |/                            /      
 *----------------------------*       

Positions:
   0 Cu     3.153614    0.001320   10.116203    ( 0.0000,  0.0000,  0.0000)
   1 Cu     1.439736    1.852294   10.652420    ( 0.0000,  0.0000,  0.0000)
   2 Cu     7.189868    1.852609   10.604916    ( 0.0000,  0.0000,  0.0000)
   3 Cu     9.030548    0.021014   10.044235    ( 0.0000,  0.0000,  0.0000)
   4 Cu    11.397514    0.009644   11.171104    ( 0.0000,  0.0000,  0.0000)
   5 Cu     9.659400    1.852088   11.786254    ( 0.0000,  0.0000,  0.0000)
   6 Cu     3.826680    1.849753   11.717266    ( 0.0000,  0.0000,  0.0000)
   7 Cu     5.532467   -0.026830   11.176315    ( 0.0000,  0.0000,  0.0000)
   8 Cu     7.874555    0.007388   12.330824    ( 0.0000,  0.0000,  0.0000)
   9 Cu     6.116712    1.851796   12.906263    ( 0.0000,  0.0000,  0.0000)
  10 Cu     0.257644    1.851079   12.939434    ( 0.0000,  0.0000,  0.0000)
  11 Cu     2.012848    0.000323   12.354883    ( 0.0000,  0.0000,  0.0000)
  12 Cu     4.350817    0.002644   13.529183    ( 0.0000,  0.0000,  0.0000)
  13 Cu     2.611439    1.849109   14.102605    ( 0.0000,  0.0000,  0.0000)
  14 Cu     8.456016    1.851014   14.106545    ( 0.0000,  0.0000,  0.0000)
  15 Cu    10.200268   -0.017705   13.500130    ( 0.0000,  0.0000,  0.0000)
  16 Cu     0.854601    0.000301   14.683880    ( 0.0000,  0.0000,  0.0000)
  17 Cu    10.799972    1.851109   15.254868    ( 0.0000,  0.0000,  0.0000)
  18 Cu     4.955847    1.850762   15.262479    ( 0.0000,  0.0000,  0.0000)
  19 Cu     6.708006   -0.000413   14.679922    ( 0.0000,  0.0000,  0.0000)
  20 Cu     9.045107   -0.000619   15.850734    ( 0.0000,  0.0000,  0.0000)
  21 Cu     7.287362    1.851979   16.442974    ( 0.0000,  0.0000,  0.0000)
  22 Cu     1.434993    1.849498   16.450174    ( 0.0000,  0.0000,  0.0000)
  23 Cu     3.187368    0.000865   15.870879    ( 0.0000,  0.0000,  0.0000)
  24 Cu     5.531064    0.001868   17.026416    ( 0.0000,  0.0000,  0.0000)
  25 Cu     3.775386    1.850863   17.611852    ( 0.0000,  0.0000,  0.0000)
  26 Cu     9.632420    1.850687   17.604217    ( 0.0000,  0.0000,  0.0000)
  27 Cu    11.383894   -0.001767   17.016577    ( 0.0000,  0.0000,  0.0000)
  28 Cu     2.017058    0.000914   18.213044    ( 0.0000,  0.0000,  0.0000)
  29 Cu     0.260705    1.849828   18.781356    ( 0.0000,  0.0000,  0.0000)
  30 Cu     6.111892    1.849705   18.787250    ( 0.0000,  0.0000,  0.0000)
  31 Cu     7.870857   -0.000456   18.189983    ( 0.0000,  0.0000,  0.0000)
  32 Cu    10.210682   -0.003335   19.364030    ( 0.0000,  0.0000,  0.0000)
  33 Cu     8.467033    1.851538   19.942723    ( 0.0000,  0.0000,  0.0000)
  34 Cu     2.617622    1.831869   19.966221    ( 0.0000,  0.0000,  0.0000)
  35 Cu     4.359943    0.000556   19.375211    ( 0.0000,  0.0000,  0.0000)
  36 Cu     6.718042   -0.000686   20.522349    ( 0.0000,  0.0000,  0.0000)
  37 Cu     4.944983    1.856186   21.137836    ( 0.0000,  0.0000,  0.0000)
  38 Cu    10.804741    1.848356   21.109199    ( 0.0000,  0.0000,  0.0000)
  39 Cu     0.863578   -0.001002   20.538595    ( 0.0000,  0.0000,  0.0000)
  40 Cu     3.156078   -0.000576   21.827528    ( 0.0000,  0.0000,  0.0000)
  41 Cu     1.420267    1.857950   22.296782    ( 0.0000,  0.0000,  0.0000)
  42 Cu     7.287701    1.820465   22.294293    ( 0.0000,  0.0000,  0.0000)
  43 Cu     9.014912   -0.003406   21.741178    ( 0.0000,  0.0000,  0.0000)
  44 Cu    11.392135   -0.001724   22.826493    ( 0.0000,  0.0000,  0.0000)
  45 Cu     9.665875    1.848556   23.348125    ( 0.0000,  0.0000,  0.0000)
  46 Cu     3.785127    1.869077   23.422744    ( 0.0000,  0.0000,  0.0000)
  47 Cu     5.518857   -0.000568   22.807173    ( 0.0000,  0.0000,  0.0000)
  48 Cu     3.151495    3.703050   10.120427    ( 0.0000,  0.0000,  0.0000)
  49 Cu     1.425469    5.553175   10.642288    ( 0.0000,  0.0000,  0.0000)
  50 Cu     7.298969    5.552014   10.662133    ( 0.0000,  0.0000,  0.0000)
  51 Cu     9.032393    3.681174   10.044997    ( 0.0000,  0.0000,  0.0000)
  52 Cu    11.397088    3.693691   11.172312    ( 0.0000,  0.0000,  0.0000)
  53 Cu     9.661305    5.551995   11.640361    ( 0.0000,  0.0000,  0.0000)
  54 Cu     3.803262    5.554790   11.727809    ( 0.0000,  0.0000,  0.0000)
  55 Cu     5.530315    3.730245   11.175004    ( 0.0000,  0.0000,  0.0000)
  56 Cu     7.873409    3.694883   12.331057    ( 0.0000,  0.0000,  0.0000)
  57 Cu     6.099799    5.552073   12.947349    ( 0.0000,  0.0000,  0.0000)
  58 Cu     0.250638    5.552451   12.930853    ( 0.0000,  0.0000,  0.0000)
  59 Cu     2.013123    3.703235   12.359849    ( 0.0000,  0.0000,  0.0000)
  60 Cu     4.350974    3.699762   13.526907    ( 0.0000,  0.0000,  0.0000)
  61 Cu     2.607646    5.554755   14.105267    ( 0.0000,  0.0000,  0.0000)
  62 Cu     8.458307    5.550937   14.093870    ( 0.0000,  0.0000,  0.0000)
  63 Cu    10.200466    3.719458   13.503421    ( 0.0000,  0.0000,  0.0000)
  64 Cu     0.854254    3.701654   14.688053    ( 0.0000,  0.0000,  0.0000)
  65 Cu    10.801506    5.550520   15.256650    ( 0.0000,  0.0000,  0.0000)
  66 Cu     4.947608    5.551900   15.279793    ( 0.0000,  0.0000,  0.0000)
  67 Cu     6.706678    3.701680   14.682161    ( 0.0000,  0.0000,  0.0000)
  68 Cu     9.043316    3.700611   15.857654    ( 0.0000,  0.0000,  0.0000)
  69 Cu     7.287657    5.549584   16.442852    ( 0.0000,  0.0000,  0.0000)
  70 Cu     1.434957    5.553196   16.452856    ( 0.0000,  0.0000,  0.0000)
  71 Cu     3.186192    3.700699   15.865412    ( 0.0000,  0.0000,  0.0000)
  72 Cu     5.531434    3.699464   17.026514    ( 0.0000,  0.0000,  0.0000)
  73 Cu     3.773512    5.552016   17.618869    ( 0.0000,  0.0000,  0.0000)
  74 Cu     9.631284    5.550635   17.598729    ( 0.0000,  0.0000,  0.0000)
  75 Cu    11.383894    3.701973   17.019339    ( 0.0000,  0.0000,  0.0000)
  76 Cu     2.018721    3.700366   18.214814    ( 0.0000,  0.0000,  0.0000)
  77 Cu     0.260362    5.551095   18.785494    ( 0.0000,  0.0000,  0.0000)
  78 Cu     6.110438    5.551909   18.789273    ( 0.0000,  0.0000,  0.0000)
  79 Cu     7.862724    3.700704   18.207039    ( 0.0000,  0.0000,  0.0000)
  80 Cu    10.206753    3.702362   19.366737    ( 0.0000,  0.0000,  0.0000)
  81 Cu     8.467164    5.548938   19.940249    ( 0.0000,  0.0000,  0.0000)
  82 Cu     2.617819    5.569295   19.969516    ( 0.0000,  0.0000,  0.0000)
  83 Cu     4.362574    3.700405   19.363083    ( 0.0000,  0.0000,  0.0000)
  84 Cu     6.701431    3.699717   20.562924    ( 0.0000,  0.0000,  0.0000)
  85 Cu     4.943886    5.544454   21.137789    ( 0.0000,  0.0000,  0.0000)
  86 Cu    10.805034    5.550942   21.114227    ( 0.0000,  0.0000,  0.0000)
  87 Cu     0.856657    3.700353   20.529932    ( 0.0000,  0.0000,  0.0000)
  88 Cu     3.158627    3.699341   21.682610    ( 0.0000,  0.0000,  0.0000)
  89 Cu     1.419953    5.541543   22.297997    ( 0.0000,  0.0000,  0.0000)
  90 Cu     7.285581    5.578983   22.292888    ( 0.0000,  0.0000,  0.0000)
  91 Cu     8.990478    3.701746   21.751796    ( 0.0000,  0.0000,  0.0000)
  92 Cu    11.377490    3.699114   22.816593    ( 0.0000,  0.0000,  0.0000)
  93 Cu     9.663849    5.549916   23.352463    ( 0.0000,  0.0000,  0.0000)
  94 Cu     3.787228    5.531663   23.423296    ( 0.0000,  0.0000,  0.0000)
  95 Cu     5.628581    3.698843   22.863294    ( 0.0000,  0.0000,  0.0000)
  96 Cl     4.219543    3.700242   24.948484    ( 0.0000,  0.0000,  0.0000)
  97 Cl     8.590443    1.851257    8.517371    ( 0.0000,  0.0000,  0.0000)

Unit cell:
           periodic     x           y           z      points  spacing
  1. axis:    yes   11.703590    0.000000    0.000000    70     0.1672
  2. axis:    yes    0.000000    7.402000    0.000000    42     0.1762
  3. axis:    no     0.000000    0.000000   33.459128   192     0.1743

  Lengths:  11.703590   7.402000  33.459128
  Angles:   90.000000  90.000000  90.000000

Effective grid spacing dv^(1/3) = 0.1725

     iter     time        total  log10-change:
                         energy  eigst   dens
iter:   1 01:19:02 -7341.398857  -4.97
iter:   2 01:22:30 -7341.463931  -4.20  -3.19
iter:   3 01:25:57 -7341.376742c -4.74  -2.89
iter:   4 01:29:25 -7341.376751c -6.18  -4.58c
iter:   5 01:32:52 -7341.376701c -7.04  -4.66c
iter:   6 01:36:18 -7341.376673c -7.39  -4.78c
iter:   7 01:39:43 -7341.376678c -7.92c -5.08c

Converged after 7 iterations.

Dipole moment: (21.187021, 0.531774, 0.000428) |e|*Ang

Energy contributions relative to reference atoms: (reference = -4347169.275539)

Kinetic:       +684.573047
Potential:     -765.034003
External:        +0.000000
XC:            -7259.102655
Entropy (-ST):   -0.938135
Local:           -1.344001
--------------------------
Free energy:   -7341.845746
Extrapolated:  -7341.376678

Showing only first 2 kpts
 Kpt  Band  Eigenvalues  Occupancy
  0   533      0.33115    0.75639
  0   534      0.40661    0.44476
  0   535      0.42011    0.39984
  0   536      0.45724    0.29404

  1   533     -0.02138    1.90765
  1   534      0.03999    1.83583
  1   535      0.11998    1.66807
  1   536      0.12915    1.64191


Fermi level: 0.28143

No gap

Forces in eV/Ang:
  0 Cu   -0.00271   -0.00803   -0.00203
  1 Cu   -0.00129   -0.00238   -0.00250
  2 Cu    0.00532   -0.00410   -0.00701
  3 Cu   -0.00885    0.01202   -0.01390
  4 Cu   -0.00177   -0.00680    0.00730
  5 Cu   -0.00102   -0.00182   -0.00702
  6 Cu   -0.00218    0.00175   -0.01137
  7 Cu   -0.00377   -0.00920    0.00171
  8 Cu    0.00190   -0.00450   -0.00372
  9 Cu    0.00088   -0.00109    0.00740
 10 Cu    0.00625    0.00110    0.00056
 11 Cu   -0.00192    0.00370   -0.00097
 12 Cu   -0.00208    0.00169   -0.00588
 13 Cu   -0.00206    0.00069   -0.00647
 14 Cu   -0.00547    0.00059   -0.00244
 15 Cu    0.00064   -0.00609    0.00484
 16 Cu   -0.00306    0.00347    0.00261
 17 Cu   -0.00690    0.00051    0.01054
 18 Cu    0.00639   -0.00253   -0.00419
 19 Cu    0.00111    0.00364   -0.00513
 20 Cu   -0.00360    0.00378    0.00803
 21 Cu   -0.00219   -0.00375   -0.00132
 22 Cu    0.00168    0.00302    0.00044
 23 Cu    0.00390   -0.00050   -0.00752
 24 Cu    0.00671   -0.00393   -0.00678
 25 Cu    0.00532   -0.00024   -0.00354
 26 Cu   -0.00259   -0.00140    0.00331
 27 Cu   -0.00121    0.00534    0.00225
 28 Cu    0.00559   -0.00112   -0.00426
 29 Cu    0.00180    0.00355   -0.00280
 30 Cu   -0.00425    0.00230    0.00837
 31 Cu    0.00047   -0.00187    0.00624
 32 Cu   -0.00090    0.00243   -0.00352
 33 Cu    0.00204    0.00170    0.00624
 34 Cu    0.00236   -0.00430   -0.00506
 35 Cu   -0.00022   -0.00243   -0.00280
 36 Cu   -0.00301    0.00081    0.00737
 37 Cu   -0.00502   -0.00184    0.00250
 38 Cu    0.00518    0.00436    0.00494
 39 Cu    0.00587    0.00105   -0.00458
 40 Cu   -0.00106    0.00049    0.00308
 41 Cu    0.00074   -0.00837   -0.00524
 42 Cu    0.00154   -0.00426    0.00418
 43 Cu    0.00579    0.00250    0.00132
 44 Cu    0.00017    0.00148   -0.00246
 45 Cu   -0.00135   -0.00710    0.00493
 46 Cu    0.01330    0.01130    0.01601
 47 Cu    0.00551   -0.00296    0.00628
 48 Cu    0.00028    0.00665   -0.00204
 49 Cu   -0.00027   -0.00154    0.00300
 50 Cu   -0.00511    0.00294   -0.00337
 51 Cu   -0.01131   -0.00999   -0.01465
 52 Cu   -0.00148    0.00718    0.00327
 53 Cu    0.00321   -0.00016   -0.00253
 54 Cu   -0.00540   -0.00238   -0.00056
 55 Cu   -0.00310    0.00676   -0.00065
 56 Cu    0.00497    0.00325   -0.00102
 57 Cu    0.00479   -0.00057   -0.01008
 58 Cu   -0.00577   -0.00115    0.00386
 59 Cu   -0.00436   -0.00457   -0.00476
 60 Cu   -0.00026   -0.00129   -0.00737
 61 Cu    0.00236   -0.00234    0.00377
 62 Cu    0.00113    0.00245    0.00206
 63 Cu   -0.00182    0.00532    0.00368
 64 Cu   -0.00158   -0.00371    0.00274
 65 Cu   -0.00549    0.00116    0.00345
 66 Cu   -0.00006    0.00182   -0.00811
 67 Cu    0.00431   -0.00241   -0.00948
 68 Cu   -0.00529    0.00047    0.00358
 69 Cu   -0.00634    0.00414    0.00659
 70 Cu    0.00136   -0.00509   -0.00227
 71 Cu    0.00319    0.00160   -0.00425
 72 Cu    0.00178    0.00352    0.00052
 73 Cu    0.00354   -0.00384   -0.00860
 74 Cu   -0.00374    0.00033    0.00653
 75 Cu   -0.00192   -0.00329   -0.00039
 76 Cu    0.00732   -0.00066   -0.01102
 77 Cu    0.00334   -0.00323   -0.00241
 78 Cu   -0.00048   -0.00340    0.00445
 79 Cu   -0.00612    0.00245    0.00341
 80 Cu    0.00305   -0.00084    0.00669
 81 Cu    0.00390   -0.00206    0.00543
 82 Cu   -0.00014    0.00490   -0.00612
 83 Cu    0.00444   -0.00071    0.00088
 84 Cu   -0.00007    0.00077   -0.00667
 85 Cu   -0.00207    0.00303    0.00620
 86 Cu    0.00272   -0.00339    0.00102
 87 Cu   -0.00517   -0.00103   -0.00106
 88 Cu    0.00237    0.00185    0.00686
 89 Cu    0.00053    0.00807   -0.00931
 90 Cu    0.00209    0.00676    0.00236
 91 Cu    0.00369   -0.00194    0.01333
 92 Cu    0.00095    0.00244    0.00205
 93 Cu    0.00147    0.00852    0.00459
 94 Cu    0.01032   -0.01356    0.01572
 95 Cu   -0.00708    0.00419    0.01092
 96 Cl    0.01349   -0.00085    0.00017
 97 Cl   -0.00666    0.00088    0.00401

System changes: positions 

Initializing position-dependent things.

Density initialized from wave functions
      .----------------------------.  
     /|                            |  
    / |                            |  
   /  |                            |  
  /   |                            |  
 *    |                            |  
 |    |                            |  
 |    |                            |  
 |    |                            |  
 |    |                            |  
 |    |                            |  
 |    |                            |  
 |    |                            |  
 |    |       Cl    Cu            Cu  
 |    |       Cu            CCu    |  
 |    | Cu       Cu    Cu          |  
 |    | Cu  Cu   Cu    Cu Cu    Cu |  
 |    Cu   Cu       Cu    Cu   Cu  |  
 |    Cu   Cu       Cu    Cu       |  
 |   Cu        Cu   Cu    Cu Cu    |  
 |    |  Cu   Cu       Cu    Cu   Cu  
 |    |  Cu   Cu       Cu    Cu    |  
 | Cu | Cu  Cu   Cu    Cu   Cu     |  
 |    |     Cu   Cu    Cu Cu    Cu |  
 |    Cu   Cu    Cu       Cu   CCu |  
 |    Cu   Cu  Cu   Cu    Cu       |  
 |   CCu       Cu   Cu       Cu    |  
 |    |  Cu   Cu    Cu Cu    Cu    |  
 | Cu | Cu    Cu       Cu    Cu    |  
 | Cu | Cu  Cu   Cu    Cu          |  
 |    |     Cu   Cu       Cu    Cu |  
 |    Cu   Cu        Cu   Cu       |  
 |    Cu            Cu       Cu    |  
 |    |                            |  
 |    |  Cu            Cul         |  
 |    |                            |  
 |    |                            |  
 |    |                            |  
 |    |                            |  
 |    |                            |  
 |    |                            |  
 |    .----------------------------.  
 |   /                            /   
 |  /                            /    
 | /                            /     
 |/                            /      
 *----------------------------*       

Positions:
   0 Cu     3.153614    0.001320   10.116203    ( 0.0000,  0.0000,  0.0000)
   1 Cu     1.439736    1.852294   10.652420    ( 0.0000,  0.0000,  0.0000)
   2 Cu     7.189868    1.852609   10.604916    ( 0.0000,  0.0000,  0.0000)
   3 Cu     9.030548    0.021014   10.044235    ( 0.0000,  0.0000,  0.0000)
   4 Cu    11.397514    0.009644   11.171104    ( 0.0000,  0.0000,  0.0000)
   5 Cu     9.659400    1.852088   11.786254    ( 0.0000,  0.0000,  0.0000)
   6 Cu     3.826680    1.849753   11.717266    ( 0.0000,  0.0000,  0.0000)
   7 Cu     5.532467   -0.026830   11.176315    ( 0.0000,  0.0000,  0.0000)
   8 Cu     7.874555    0.007388   12.330824    ( 0.0000,  0.0000,  0.0000)
   9 Cu     6.116712    1.851796   12.906263    ( 0.0000,  0.0000,  0.0000)
  10 Cu     0.257644    1.851079   12.939434    ( 0.0000,  0.0000,  0.0000)
  11 Cu     2.012848    0.000323   12.354883    ( 0.0000,  0.0000,  0.0000)
  12 Cu     4.350817    0.002644   13.529183    ( 0.0000,  0.0000,  0.0000)
  13 Cu     2.611439    1.849109   14.102605    ( 0.0000,  0.0000,  0.0000)
  14 Cu     8.456016    1.851014   14.106545    ( 0.0000,  0.0000,  0.0000)
  15 Cu    10.200268   -0.017705   13.500130    ( 0.0000,  0.0000,  0.0000)
  16 Cu     0.854601    0.000301   14.683880    ( 0.0000,  0.0000,  0.0000)
  17 Cu    10.799972    1.851109   15.254868    ( 0.0000,  0.0000,  0.0000)
  18 Cu     4.955847    1.850762   15.262479    ( 0.0000,  0.0000,  0.0000)
  19 Cu     6.708006   -0.000413   14.679922    ( 0.0000,  0.0000,  0.0000)
  20 Cu     9.045107   -0.000619   15.850734    ( 0.0000,  0.0000,  0.0000)
  21 Cu     7.287362    1.851979   16.442974    ( 0.0000,  0.0000,  0.0000)
  22 Cu     1.434993    1.849498   16.450174    ( 0.0000,  0.0000,  0.0000)
  23 Cu     3.187368    0.000865   15.870879    ( 0.0000,  0.0000,  0.0000)
  24 Cu     5.531064    0.001868   17.026416    ( 0.0000,  0.0000,  0.0000)
  25 Cu     3.775386    1.850863   17.611852    ( 0.0000,  0.0000,  0.0000)
  26 Cu     9.632420    1.850687   17.604217    ( 0.0000,  0.0000,  0.0000)
  27 Cu    11.383894   -0.001767   17.016577    ( 0.0000,  0.0000,  0.0000)
  28 Cu     2.017058    0.000914   18.213044    ( 0.0000,  0.0000,  0.0000)
  29 Cu     0.260705    1.849828   18.781356    ( 0.0000,  0.0000,  0.0000)
  30 Cu     6.111892    1.849705   18.787250    ( 0.0000,  0.0000,  0.0000)
  31 Cu     7.870857   -0.000456   18.189983    ( 0.0000,  0.0000,  0.0000)
  32 Cu    10.210682   -0.003335   19.364030    ( 0.0000,  0.0000,  0.0000)
  33 Cu     8.467033    1.851538   19.942723    ( 0.0000,  0.0000,  0.0000)
  34 Cu     2.617622    1.831869   19.966221    ( 0.0000,  0.0000,  0.0000)
  35 Cu     4.359943    0.000556   19.375211    ( 0.0000,  0.0000,  0.0000)
  36 Cu     6.718042   -0.000686   20.522349    ( 0.0000,  0.0000,  0.0000)
  37 Cu     4.944983    1.856186   21.137836    ( 0.0000,  0.0000,  0.0000)
  38 Cu    10.804741    1.848356   21.109199    ( 0.0000,  0.0000,  0.0000)
  39 Cu     0.863578   -0.001002   20.538595    ( 0.0000,  0.0000,  0.0000)
  40 Cu     3.156078   -0.000576   21.827528    ( 0.0000,  0.0000,  0.0000)
  41 Cu     1.420267    1.857950   22.296782    ( 0.0000,  0.0000,  0.0000)
  42 Cu     7.287701    1.820465   22.294293    ( 0.0000,  0.0000,  0.0000)
  43 Cu     9.014912   -0.003406   21.741178    ( 0.0000,  0.0000,  0.0000)
  44 Cu    11.392135   -0.001724   22.826493    ( 0.0000,  0.0000,  0.0000)
  45 Cu     9.665875    1.848556   23.348125    ( 0.0000,  0.0000,  0.0000)
  46 Cu     3.785127    1.869077   23.422744    ( 0.0000,  0.0000,  0.0000)
  47 Cu     5.518857   -0.000568   22.807173    ( 0.0000,  0.0000,  0.0000)
  48 Cu     3.151495    3.703050   10.120427    ( 0.0000,  0.0000,  0.0000)
  49 Cu     1.425469    5.553175   10.642288    ( 0.0000,  0.0000,  0.0000)
  50 Cu     7.298969    5.552014   10.662133    ( 0.0000,  0.0000,  0.0000)
  51 Cu     9.032393    3.681174   10.044997    ( 0.0000,  0.0000,  0.0000)
  52 Cu    11.397088    3.693691   11.172312    ( 0.0000,  0.0000,  0.0000)
  53 Cu     9.661305    5.551995   11.640361    ( 0.0000,  0.0000,  0.0000)
  54 Cu     3.803262    5.554790   11.727809    ( 0.0000,  0.0000,  0.0000)
  55 Cu     5.530315    3.730245   11.175004    ( 0.0000,  0.0000,  0.0000)
  56 Cu     7.873409    3.694883   12.331057    ( 0.0000,  0.0000,  0.0000)
  57 Cu     6.099799    5.552073   12.947349    ( 0.0000,  0.0000,  0.0000)
  58 Cu     0.250638    5.552451   12.930853    ( 0.0000,  0.0000,  0.0000)
  59 Cu     2.013123    3.703235   12.359849    ( 0.0000,  0.0000,  0.0000)
  60 Cu     4.350974    3.699762   13.526907    ( 0.0000,  0.0000,  0.0000)
  61 Cu     2.607646    5.554755   14.105267    ( 0.0000,  0.0000,  0.0000)
  62 Cu     8.458307    5.550937   14.093870    ( 0.0000,  0.0000,  0.0000)
  63 Cu    10.200466    3.719458   13.503421    ( 0.0000,  0.0000,  0.0000)
  64 Cu     0.854254    3.701654   14.688053    ( 0.0000,  0.0000,  0.0000)
  65 Cu    10.801506    5.550520   15.256650    ( 0.0000,  0.0000,  0.0000)
  66 Cu     4.947608    5.551900   15.279793    ( 0.0000,  0.0000,  0.0000)
  67 Cu     6.706678    3.701680   14.682161    ( 0.0000,  0.0000,  0.0000)
  68 Cu     9.043316    3.700611   15.857654    ( 0.0000,  0.0000,  0.0000)
  69 Cu     7.287657    5.549584   16.442852    ( 0.0000,  0.0000,  0.0000)
  70 Cu     1.434957    5.553196   16.452856    ( 0.0000,  0.0000,  0.0000)
  71 Cu     3.186192    3.700699   15.865412    ( 0.0000,  0.0000,  0.0000)
  72 Cu     5.531434    3.699464   17.026514    ( 0.0000,  0.0000,  0.0000)
  73 Cu     3.773512    5.552016   17.618869    ( 0.0000,  0.0000,  0.0000)
  74 Cu     9.631284    5.550635   17.598729    ( 0.0000,  0.0000,  0.0000)
  75 Cu    11.383894    3.701973   17.019339    ( 0.0000,  0.0000,  0.0000)
  76 Cu     2.018721    3.700366   18.214814    ( 0.0000,  0.0000,  0.0000)
  77 Cu     0.260362    5.551095   18.785494    ( 0.0000,  0.0000,  0.0000)
  78 Cu     6.110438    5.551909   18.789273    ( 0.0000,  0.0000,  0.0000)
  79 Cu     7.862724    3.700704   18.207039    ( 0.0000,  0.0000,  0.0000)
  80 Cu    10.206753    3.702362   19.366737    ( 0.0000,  0.0000,  0.0000)
  81 Cu     8.467164    5.548938   19.940249    ( 0.0000,  0.0000,  0.0000)
  82 Cu     2.617819    5.569295   19.969516    ( 0.0000,  0.0000,  0.0000)
  83 Cu     4.362574    3.700405   19.363083    ( 0.0000,  0.0000,  0.0000)
  84 Cu     6.701431    3.699717   20.562924    ( 0.0000,  0.0000,  0.0000)
  85 Cu     4.943886    5.544454   21.137789    ( 0.0000,  0.0000,  0.0000)
  86 Cu    10.805034    5.550942   21.114227    ( 0.0000,  0.0000,  0.0000)
  87 Cu     0.856657    3.700353   20.529932    ( 0.0000,  0.0000,  0.0000)
  88 Cu     3.158627    3.699341   21.682610    ( 0.0000,  0.0000,  0.0000)
  89 Cu     1.419953    5.541543   22.297997    ( 0.0000,  0.0000,  0.0000)
  90 Cu     7.285581    5.578983   22.292888    ( 0.0000,  0.0000,  0.0000)
  91 Cu     8.990478    3.701746   21.751796    ( 0.0000,  0.0000,  0.0000)
  92 Cu    11.377490    3.699114   22.816593    ( 0.0000,  0.0000,  0.0000)
  93 Cu     9.663849    5.549916   23.352463    ( 0.0000,  0.0000,  0.0000)
  94 Cu     3.787228    5.531663   23.423296    ( 0.0000,  0.0000,  0.0000)
  95 Cu     5.628581    3.698843   22.863294    ( 0.0000,  0.0000,  0.0000)
  96 Cl     4.239543    3.700242   24.948484    ( 0.0000,  0.0000,  0.0000)
  97 Cl     8.590443    1.851257    8.517371    ( 0.0000,  0.0000,  0.0000)

Unit cell:
           periodic     x           y           z      points  spacing
  1. axis:    yes   11.703590    0.000000    0.000000    70     0.1672
  2. axis:    yes    0.000000    7.402000    0.000000    42     0.1762
  3. axis:    no     0.000000    0.000000   33.459128   192     0.1743

  Lengths:  11.703590   7.402000  33.459128
  Angles:   90.000000  90.000000  90.000000

Effective grid spacing dv^(1/3) = 0.1725

     iter     time        total  log10-change:
                         energy  eigst   dens
iter:   1 01:45:13 -7341.377225  -5.14
iter:   2 01:48:38 -7341.377930  -5.86  -4.05c
iter:   3 01:52:02 -7341.376820c -6.46  -3.81
iter:   4 01:55:27 -7341.376786c -7.03  -4.53c
iter:   5 01:58:51 -7341.376725c -6.77  -4.71c
iter:   6 02:02:16 -7341.376725c -7.18  -4.76c
iter:   7 02:05:40 -7341.376723c -7.69c -4.96c

Converged after 7 iterations.

Dipole moment: (21.185697, 0.531792, 0.002217) |e|*Ang

Energy contributions relative to reference atoms: (reference = -4347169.275539)

Kinetic:       +684.605358
Potential:     -765.062175
External:        +0.000000
XC:            -7259.106579
Entropy (-ST):   -0.938276
Local:           -1.344190
--------------------------
Free energy:   -7341.845861
Extrapolated:  -7341.376723

Showing only first 2 kpts
 Kpt  Band  Eigenvalues  Occupancy
  0   533      0.33155    0.75675
  0   534      0.40707    0.44483
  0   535      0.42063    0.39969
  0   536      0.45758    0.29438

  1   533     -0.02051    1.90731
  1   534      0.04062    1.83559
  1   535      0.12065    1.66753
  1   536      0.12973    1.64159


Fermi level: 0.28190

No gap

Forces in eV/Ang:
  0 Cu   -0.00269   -0.00807   -0.00224
  1 Cu   -0.00117   -0.00238   -0.00288
  2 Cu    0.00481   -0.00412   -0.00710
  3 Cu   -0.00870    0.01193   -0.01379
  4 Cu   -0.00126   -0.00675    0.00685
  5 Cu   -0.00066   -0.00183   -0.00744
  6 Cu   -0.00246    0.00170   -0.01178
  7 Cu   -0.00434   -0.00926    0.00117
  8 Cu    0.00176   -0.00435   -0.00424
  9 Cu    0.00046   -0.00106    0.00688
 10 Cu    0.00668    0.00112    0.00040
 11 Cu   -0.00181    0.00366   -0.00129
 12 Cu   -0.00251    0.00171   -0.00599
 13 Cu   -0.00210    0.00056   -0.00667
 14 Cu   -0.00536    0.00055   -0.00229
 15 Cu    0.00110   -0.00615    0.00490
 16 Cu   -0.00290    0.00347    0.00241
 17 Cu   -0.00662    0.00042    0.01058
 18 Cu    0.00608   -0.00242   -0.00451
 19 Cu    0.00085    0.00362   -0.00512
 20 Cu   -0.00341    0.00381    0.00843
 21 Cu   -0.00206   -0.00371   -0.00055
 22 Cu    0.00174    0.00315   -0.00010
 23 Cu    0.00377   -0.00048   -0.00776
 24 Cu    0.00664   -0.00388   -0.00605
 25 Cu    0.00574   -0.00008   -0.00345
 26 Cu   -0.00276   -0.00124    0.00416
 27 Cu   -0.00135    0.00532    0.00283
 28 Cu    0.00575   -0.00112   -0.00499
 29 Cu    0.00136    0.00385   -0.00364
 30 Cu   -0.00361    0.00230    0.00928
 31 Cu    0.00023   -0.00188    0.00775
 32 Cu   -0.00261    0.00242   -0.00423
 33 Cu    0.00064    0.00188    0.00617
 34 Cu    0.00335   -0.00474   -0.00624
 35 Cu    0.00096   -0.00242   -0.00289
 36 Cu   -0.00291    0.00085    0.00784
 37 Cu   -0.00432   -0.00157   -0.00152
 38 Cu    0.00321    0.00428    0.00399
 39 Cu    0.00474    0.00105   -0.00688
 40 Cu   -0.00202    0.00051    0.00903
 41 Cu    0.00589   -0.00477    0.00239
 42 Cu    0.00616   -0.00747   -0.00574
 43 Cu    0.00413    0.00248    0.00065
 44 Cu    0.00073    0.00148    0.00006
 45 Cu    0.00138   -0.00750    0.00257
 46 Cu    0.00879    0.01428    0.01808
 47 Cu    0.00515   -0.00292   -0.00246
 48 Cu    0.00026    0.00669   -0.00215
 49 Cu   -0.00010   -0.00154    0.00268
 50 Cu   -0.00563    0.00297   -0.00391
 51 Cu   -0.01116   -0.00996   -0.01458
 52 Cu   -0.00095    0.00716    0.00270
 53 Cu    0.00370   -0.00015   -0.00308
 54 Cu   -0.00565   -0.00233   -0.00103
 55 Cu   -0.00364    0.00680   -0.00107
 56 Cu    0.00486    0.00310   -0.00145
 57 Cu    0.00426   -0.00058   -0.01044
 58 Cu   -0.00538   -0.00116    0.00375
 59 Cu   -0.00430   -0.00453   -0.00487
 60 Cu   -0.00070   -0.00130   -0.00760
 61 Cu    0.00231   -0.00220    0.00354
 62 Cu    0.00127    0.00246    0.00219
 63 Cu   -0.00120    0.00541    0.00380
 64 Cu   -0.00143   -0.00367    0.00263
 65 Cu   -0.00511    0.00125    0.00339
 66 Cu   -0.00033    0.00170   -0.00845
 67 Cu    0.00404   -0.00237   -0.00943
 68 Cu   -0.00508    0.00045    0.00356
 69 Cu   -0.00618    0.00410    0.00729
 70 Cu    0.00138   -0.00521   -0.00280
 71 Cu    0.00292    0.00158   -0.00468
 72 Cu    0.00210    0.00346    0.00163
 73 Cu    0.00394   -0.00401   -0.00844
 74 Cu   -0.00386    0.00016    0.00736
 75 Cu   -0.00222   -0.00328   -0.00049
 76 Cu    0.00755   -0.00065   -0.01095
 77 Cu    0.00286   -0.00354   -0.00330
 78 Cu    0.00019   -0.00339    0.00530
 79 Cu   -0.00589    0.00245    0.00430
 80 Cu    0.00144   -0.00083    0.00612
 81 Cu    0.00255   -0.00223    0.00538
 82 Cu    0.00088    0.00532   -0.00725
 83 Cu    0.00653   -0.00074    0.00049
 84 Cu    0.00059    0.00070   -0.00901
 85 Cu   -0.00145    0.00276    0.00214
 86 Cu    0.00073   -0.00332    0.00007
 87 Cu   -0.00547   -0.00103   -0.00108
 88 Cu   -0.00141    0.00185    0.00927
 89 Cu    0.00565    0.00444   -0.00169
 90 Cu    0.00676    0.01002   -0.00755
 91 Cu    0.00276   -0.00193    0.01068
 92 Cu    0.00532    0.00244    0.00576
 93 Cu    0.00421    0.00894    0.00221
 94 Cu    0.00584   -0.01651    0.01774
 95 Cu   -0.00444    0.00413    0.00269
 96 Cl   -0.02202   -0.00090   -0.00027
 97 Cl   -0.00684    0.00088    0.00378

System changes: positions 

Initializing position-dependent things.

Density initialized from wave functions
      .----------------------------.  
     /|                            |  
    / |                            |  
   /  |                            |  
  /   |                            |  
 *    |                            |  
 |    |                            |  
 |    |                            |  
 |    |                            |  
 |    |                            |  
 |    |                            |  
 |    |                            |  
 |    |                            |  
 |    |       Cl    Cu            Cu  
 |    |       Cu            CCu    |  
 |    | Cu       Cu    Cu          |  
 |    | Cu  Cu   Cu    Cu Cu    Cu |  
 |    Cu   Cu       Cu    Cu   Cu  |  
 |    Cu   Cu       Cu    Cu       |  
 |   Cu        Cu   Cu    Cu Cu    |  
 |    |  Cu   Cu       Cu    Cu   Cu  
 |    |  Cu   Cu       Cu    Cu    |  
 | Cu | Cu  Cu   Cu    Cu   Cu     |  
 |    |     Cu   Cu    Cu Cu    Cu |  
 |    Cu   Cu    Cu       Cu   CCu |  
 |    Cu   Cu  Cu   Cu    Cu       |  
 |   CCu       Cu   Cu       Cu    |  
 |    |  Cu   Cu    Cu Cu    Cu    |  
 | Cu | Cu    Cu       Cu    Cu    |  
 | Cu | Cu  Cu   Cu    Cu          |  
 |    |     Cu   Cu       Cu    Cu |  
 |    Cu   Cu        Cu   Cu       |  
 |    Cu            Cu       Cu    |  
 |    |                            |  
 |    |  Cu            Cul         |  
 |    |                            |  
 |    |                            |  
 |    |                            |  
 |    |                            |  
 |    |                            |  
 |    |                            |  
 |    .----------------------------.  
 |   /                            /   
 |  /                            /    
 | /                            /     
 |/                            /      
 *----------------------------*       

Positions:
   0 Cu     3.153614    0.001320   10.116203    ( 0.0000,  0.0000,  0.0000)
   1 Cu     1.439736    1.852294   10.652420    ( 0.0000,  0.0000,  0.0000)
   2 Cu     7.189868    1.852609   10.604916    ( 0.0000,  0.0000,  0.0000)
   3 Cu     9.030548    0.021014   10.044235    ( 0.0000,  0.0000,  0.0000)
   4 Cu    11.397514    0.009644   11.171104    ( 0.0000,  0.0000,  0.0000)
   5 Cu     9.659400    1.852088   11.786254    ( 0.0000,  0.0000,  0.0000)
   6 Cu     3.826680    1.849753   11.717266    ( 0.0000,  0.0000,  0.0000)
   7 Cu     5.532467   -0.026830   11.176315    ( 0.0000,  0.0000,  0.0000)
   8 Cu     7.874555    0.007388   12.330824    ( 0.0000,  0.0000,  0.0000)
   9 Cu     6.116712    1.851796   12.906263    ( 0.0000,  0.0000,  0.0000)
  10 Cu     0.257644    1.851079   12.939434    ( 0.0000,  0.0000,  0.0000)
  11 Cu     2.012848    0.000323   12.354883    ( 0.0000,  0.0000,  0.0000)
  12 Cu     4.350817    0.002644   13.529183    ( 0.0000,  0.0000,  0.0000)
  13 Cu     2.611439    1.849109   14.102605    ( 0.0000,  0.0000,  0.0000)
  14 Cu     8.456016    1.851014   14.106545    ( 0.0000,  0.0000,  0.0000)
  15 Cu    10.200268   -0.017705   13.500130    ( 0.0000,  0.0000,  0.0000)
  16 Cu     0.854601    0.000301   14.683880    ( 0.0000,  0.0000,  0.0000)
  17 Cu    10.799972    1.851109   15.254868    ( 0.0000,  0.0000,  0.0000)
  18 Cu     4.955847    1.850762   15.262479    ( 0.0000,  0.0000,  0.0000)
  19 Cu     6.708006   -0.000413   14.679922    ( 0.0000,  0.0000,  0.0000)
  20 Cu     9.045107   -0.000619   15.850734    ( 0.0000,  0.0000,  0.0000)
  21 Cu     7.287362    1.851979   16.442974    ( 0.0000,  0.0000,  0.0000)
  22 Cu     1.434993    1.849498   16.450174    ( 0.0000,  0.0000,  0.0000)
  23 Cu     3.187368    0.000865   15.870879    ( 0.0000,  0.0000,  0.0000)
  24 Cu     5.531064    0.001868   17.026416    ( 0.0000,  0.0000,  0.0000)
  25 Cu     3.775386    1.850863   17.611852    ( 0.0000,  0.0000,  0.0000)
  26 Cu     9.632420    1.850687   17.604217    ( 0.0000,  0.0000,  0.0000)
  27 Cu    11.383894   -0.001767   17.016577    ( 0.0000,  0.0000,  0.0000)
  28 Cu     2.017058    0.000914   18.213044    ( 0.0000,  0.0000,  0.0000)
  29 Cu     0.260705    1.849828   18.781356    ( 0.0000,  0.0000,  0.0000)
  30 Cu     6.111892    1.849705   18.787250    ( 0.0000,  0.0000,  0.0000)
  31 Cu     7.870857   -0.000456   18.189983    ( 0.0000,  0.0000,  0.0000)
  32 Cu    10.210682   -0.003335   19.364030    ( 0.0000,  0.0000,  0.0000)
  33 Cu     8.467033    1.851538   19.942723    ( 0.0000,  0.0000,  0.0000)
  34 Cu     2.617622    1.831869   19.966221    ( 0.0000,  0.0000,  0.0000)
  35 Cu     4.359943    0.000556   19.375211    ( 0.0000,  0.0000,  0.0000)
  36 Cu     6.718042   -0.000686   20.522349    ( 0.0000,  0.0000,  0.0000)
  37 Cu     4.944983    1.856186   21.137836    ( 0.0000,  0.0000,  0.0000)
  38 Cu    10.804741    1.848356   21.109199    ( 0.0000,  0.0000,  0.0000)
  39 Cu     0.863578   -0.001002   20.538595    ( 0.0000,  0.0000,  0.0000)
  40 Cu     3.156078   -0.000576   21.827528    ( 0.0000,  0.0000,  0.0000)
  41 Cu     1.420267    1.857950   22.296782    ( 0.0000,  0.0000,  0.0000)
  42 Cu     7.287701    1.820465   22.294293    ( 0.0000,  0.0000,  0.0000)
  43 Cu     9.014912   -0.003406   21.741178    ( 0.0000,  0.0000,  0.0000)
  44 Cu    11.392135   -0.001724   22.826493    ( 0.0000,  0.0000,  0.0000)
  45 Cu     9.665875    1.848556   23.348125    ( 0.0000,  0.0000,  0.0000)
  46 Cu     3.785127    1.869077   23.422744    ( 0.0000,  0.0000,  0.0000)
  47 Cu     5.518857   -0.000568   22.807173    ( 0.0000,  0.0000,  0.0000)
  48 Cu     3.151495    3.703050   10.120427    ( 0.0000,  0.0000,  0.0000)
  49 Cu     1.425469    5.553175   10.642288    ( 0.0000,  0.0000,  0.0000)
  50 Cu     7.298969    5.552014   10.662133    ( 0.0000,  0.0000,  0.0000)
  51 Cu     9.032393    3.681174   10.044997    ( 0.0000,  0.0000,  0.0000)
  52 Cu    11.397088    3.693691   11.172312    ( 0.0000,  0.0000,  0.0000)
  53 Cu     9.661305    5.551995   11.640361    ( 0.0000,  0.0000,  0.0000)
  54 Cu     3.803262    5.554790   11.727809    ( 0.0000,  0.0000,  0.0000)
  55 Cu     5.530315    3.730245   11.175004    ( 0.0000,  0.0000,  0.0000)
  56 Cu     7.873409    3.694883   12.331057    ( 0.0000,  0.0000,  0.0000)
  57 Cu     6.099799    5.552073   12.947349    ( 0.0000,  0.0000,  0.0000)
  58 Cu     0.250638    5.552451   12.930853    ( 0.0000,  0.0000,  0.0000)
  59 Cu     2.013123    3.703235   12.359849    ( 0.0000,  0.0000,  0.0000)
  60 Cu     4.350974    3.699762   13.526907    ( 0.0000,  0.0000,  0.0000)
  61 Cu     2.607646    5.554755   14.105267    ( 0.0000,  0.0000,  0.0000)
  62 Cu     8.458307    5.550937   14.093870    ( 0.0000,  0.0000,  0.0000)
  63 Cu    10.200466    3.719458   13.503421    ( 0.0000,  0.0000,  0.0000)
  64 Cu     0.854254    3.701654   14.688053    ( 0.0000,  0.0000,  0.0000)
  65 Cu    10.801506    5.550520   15.256650    ( 0.0000,  0.0000,  0.0000)
  66 Cu     4.947608    5.551900   15.279793    ( 0.0000,  0.0000,  0.0000)
  67 Cu     6.706678    3.701680   14.682161    ( 0.0000,  0.0000,  0.0000)
  68 Cu     9.043316    3.700611   15.857654    ( 0.0000,  0.0000,  0.0000)
  69 Cu     7.287657    5.549584   16.442852    ( 0.0000,  0.0000,  0.0000)
  70 Cu     1.434957    5.553196   16.452856    ( 0.0000,  0.0000,  0.0000)
  71 Cu     3.186192    3.700699   15.865412    ( 0.0000,  0.0000,  0.0000)
  72 Cu     5.531434    3.699464   17.026514    ( 0.0000,  0.0000,  0.0000)
  73 Cu     3.773512    5.552016   17.618869    ( 0.0000,  0.0000,  0.0000)
  74 Cu     9.631284    5.550635   17.598729    ( 0.0000,  0.0000,  0.0000)
  75 Cu    11.383894    3.701973   17.019339    ( 0.0000,  0.0000,  0.0000)
  76 Cu     2.018721    3.700366   18.214814    ( 0.0000,  0.0000,  0.0000)
  77 Cu     0.260362    5.551095   18.785494    ( 0.0000,  0.0000,  0.0000)
  78 Cu     6.110438    5.551909   18.789273    ( 0.0000,  0.0000,  0.0000)
  79 Cu     7.862724    3.700704   18.207039    ( 0.0000,  0.0000,  0.0000)
  80 Cu    10.206753    3.702362   19.366737    ( 0.0000,  0.0000,  0.0000)
  81 Cu     8.467164    5.548938   19.940249    ( 0.0000,  0.0000,  0.0000)
  82 Cu     2.617819    5.569295   19.969516    ( 0.0000,  0.0000,  0.0000)
  83 Cu     4.362574    3.700405   19.363083    ( 0.0000,  0.0000,  0.0000)
  84 Cu     6.701431    3.699717   20.562924    ( 0.0000,  0.0000,  0.0000)
  85 Cu     4.943886    5.544454   21.137789    ( 0.0000,  0.0000,  0.0000)
  86 Cu    10.805034    5.550942   21.114227    ( 0.0000,  0.0000,  0.0000)
  87 Cu     0.856657    3.700353   20.529932    ( 0.0000,  0.0000,  0.0000)
  88 Cu     3.158627    3.699341   21.682610    ( 0.0000,  0.0000,  0.0000)
  89 Cu     1.419953    5.541543   22.297997    ( 0.0000,  0.0000,  0.0000)
  90 Cu     7.285581    5.578983   22.292888    ( 0.0000,  0.0000,  0.0000)
  91 Cu     8.990478    3.701746   21.751796    ( 0.0000,  0.0000,  0.0000)
  92 Cu    11.377490    3.699114   22.816593    ( 0.0000,  0.0000,  0.0000)
  93 Cu     9.663849    5.549916   23.352463    ( 0.0000,  0.0000,  0.0000)
  94 Cu     3.787228    5.531663   23.423296    ( 0.0000,  0.0000,  0.0000)
  95 Cu     5.628581    3.698843   22.863294    ( 0.0000,  0.0000,  0.0000)
  96 Cl     4.229543    3.690242   24.948484    ( 0.0000,  0.0000,  0.0000)
  97 Cl     8.590443    1.851257    8.517371    ( 0.0000,  0.0000,  0.0000)

Unit cell:
           periodic     x           y           z      points  spacing
  1. axis:    yes   11.703590    0.000000    0.000000    70     0.1672
  2. axis:    yes    0.000000    7.402000    0.000000    42     0.1762
  3. axis:    no     0.000000    0.000000   33.459128   192     0.1743

  Lengths:  11.703590   7.402000  33.459128
  Angles:   90.000000  90.000000  90.000000

Effective grid spacing dv^(1/3) = 0.1725

     iter     time        total  log10-change:
                         energy  eigst   dens
iter:   1 02:11:10 -7341.377697  -5.25
iter:   2 02:14:34 -7341.378812  -5.71  -3.95
iter:   3 02:17:56 -7341.376796c -6.22  -3.70
iter:   4 02:21:20 -7341.376735c -7.16  -4.48c
iter:   5 02:24:43 -7341.376668c -6.67  -4.72c
iter:   6 02:28:07 -7341.376666c -6.98  -4.80c
iter:   7 02:31:31 -7341.376658c -7.67c -5.02c

Converged after 7 iterations.

Dipole moment: (21.186214, 0.532030, 0.001249) |e|*Ang

Energy contributions relative to reference atoms: (reference = -4347169.275539)

Kinetic:       +684.685621
Potential:     -765.133307
External:        +0.000000
XC:            -7259.114470
Entropy (-ST):   -0.938221
Local:           -1.345391
--------------------------
Free energy:   -7341.845768
Extrapolated:  -7341.376658

Showing only first 2 kpts
 Kpt  Band  Eigenvalues  Occupancy
  0   533      0.33168    0.75573
  0   534      0.40701    0.44473
  0   535      0.42046    0.39998
  0   536      0.45759    0.29417

  1   533     -0.02049    1.90721
  1   534      0.04046    1.83571
  1   535      0.12047    1.66780
  1   536      0.12963    1.64163


Fermi level: 0.28182

No gap

Forces in eV/Ang:
  0 Cu   -0.00258   -0.00822   -0.00144
  1 Cu   -0.00126   -0.00235   -0.00235
  2 Cu    0.00516   -0.00411   -0.00650
  3 Cu   -0.00907    0.01216   -0.01330
  4 Cu   -0.00176   -0.00682    0.00751
  5 Cu   -0.00117   -0.00180   -0.00701
  6 Cu   -0.00191    0.00176   -0.01141
  7 Cu   -0.00373   -0.00932    0.00192
  8 Cu    0.00170   -0.00441   -0.00391
  9 Cu    0.00093   -0.00107    0.00720
 10 Cu    0.00619    0.00119    0.00069
 11 Cu   -0.00176    0.00340   -0.00102
 12 Cu   -0.00191    0.00148   -0.00585
 13 Cu   -0.00193    0.00072   -0.00633
 14 Cu   -0.00552    0.00059   -0.00255
 15 Cu    0.00061   -0.00618    0.00502
 16 Cu   -0.00304    0.00329    0.00272
 17 Cu   -0.00676    0.00050    0.01055
 18 Cu    0.00628   -0.00244   -0.00460
 19 Cu    0.00105    0.00361   -0.00552
 20 Cu   -0.00341    0.00380    0.00784
 21 Cu   -0.00199   -0.00371   -0.00144
 22 Cu    0.00158    0.00303    0.00032
 23 Cu    0.00373   -0.00053   -0.00772
 24 Cu    0.00651   -0.00364   -0.00649
 25 Cu    0.00527   -0.00032   -0.00291
 26 Cu   -0.00232   -0.00133    0.00371
 27 Cu   -0.00114    0.00538    0.00264
 28 Cu    0.00544   -0.00086   -0.00428
 29 Cu    0.00179    0.00363   -0.00298
 30 Cu   -0.00410    0.00255    0.00847
 31 Cu    0.00060   -0.00181    0.00708
 32 Cu   -0.00118    0.00263   -0.00397
 33 Cu    0.00200    0.00180    0.00555
 34 Cu    0.00244   -0.00454   -0.00488
 35 Cu   -0.00021   -0.00262   -0.00283
 36 Cu   -0.00290    0.00094    0.00655
 37 Cu   -0.00564   -0.00313   -0.00315
 38 Cu    0.00534    0.00454    0.00471
 39 Cu    0.00599    0.00107   -0.00486
 40 Cu   -0.00223   -0.00182    0.00375
 41 Cu   -0.00030   -0.00827   -0.00713
 42 Cu    0.00539   -0.00563   -0.00151
 43 Cu    0.00607    0.00222    0.00026
 44 Cu    0.00085    0.00075   -0.00235
 45 Cu    0.00088   -0.00716    0.00389
 46 Cu    0.00993    0.00333    0.00754
 47 Cu    0.00494   -0.01198    0.00417
 48 Cu    0.00042    0.00686   -0.00143
 49 Cu   -0.00008   -0.00153    0.00324
 50 Cu   -0.00548    0.00296   -0.00291
 51 Cu   -0.01151   -0.01019   -0.01404
 52 Cu   -0.00148    0.00714    0.00349
 53 Cu    0.00300   -0.00017   -0.00257
 54 Cu   -0.00528   -0.00237   -0.00063
 55 Cu   -0.00308    0.00689   -0.00044
 56 Cu    0.00477    0.00317   -0.00117
 57 Cu    0.00467   -0.00057   -0.01017
 58 Cu   -0.00567   -0.00105    0.00406
 59 Cu   -0.00421   -0.00444   -0.00476
 60 Cu   -0.00008   -0.00115   -0.00735
 61 Cu    0.00239   -0.00227    0.00380
 62 Cu    0.00110    0.00244    0.00201
 63 Cu   -0.00182    0.00540    0.00388
 64 Cu   -0.00160   -0.00357    0.00283
 65 Cu   -0.00533    0.00118    0.00331
 66 Cu   -0.00013    0.00181   -0.00862
 67 Cu    0.00425   -0.00242   -0.00983
 68 Cu   -0.00514    0.00045    0.00333
 69 Cu   -0.00614    0.00406    0.00648
 70 Cu    0.00134   -0.00515   -0.00230
 71 Cu    0.00304    0.00159   -0.00444
 72 Cu    0.00172    0.00344    0.00093
 73 Cu    0.00340   -0.00397   -0.00851
 74 Cu   -0.00348    0.00025    0.00701
 75 Cu   -0.00190   -0.00329   -0.00009
 76 Cu    0.00724   -0.00094   -0.01069
 77 Cu    0.00323   -0.00327   -0.00260
 78 Cu   -0.00027   -0.00327    0.00488
 79 Cu   -0.00598    0.00242    0.00423
 80 Cu    0.00277   -0.00095    0.00634
 81 Cu    0.00362   -0.00192    0.00493
 82 Cu   -0.00036    0.00439   -0.00662
 83 Cu    0.00444   -0.00070    0.00070
 84 Cu   -0.00040    0.00127   -0.00735
 85 Cu   -0.00230    0.00137    0.00898
 86 Cu    0.00293   -0.00348    0.00081
 87 Cu   -0.00483   -0.00103   -0.00079
 88 Cu    0.00093    0.00566    0.00749
 89 Cu    0.00325    0.00683   -0.00574
 90 Cu    0.00021    0.00640    0.00252
 91 Cu    0.00430   -0.00171    0.01204
 92 Cu    0.00227    0.00330    0.00192
 93 Cu    0.00275    0.00861    0.00441
 94 Cu    0.01269   -0.02275    0.02224
 95 Cu   -0.00597    0.01135    0.01047
 96 Cl    0.01717    0.02993    0.00047
 97 Cl   -0.00711    0.00088    0.00395

System changes: positions 

Initializing position-dependent things.

Density initialized from wave functions
      .----------------------------.  
     /|                            |  
    / |                            |  
   /  |                            |  
  /   |                            |  
 *    |                            |  
 |    |                            |  
 |    |                            |  
 |    |                            |  
 |    |                            |  
 |    |                            |  
 |    |                            |  
 |    |                            |  
 |    |       Cl    Cu            Cu  
 |    |       Cu            CCu    |  
 |    | Cu       Cu    Cu          |  
 |    | Cu  Cu   Cu    Cu Cu    Cu |  
 |    Cu   Cu       Cu    Cu   Cu  |  
 |    Cu   Cu       Cu    Cu       |  
 |   Cu        Cu   Cu    Cu Cu    |  
 |    |  Cu   Cu       Cu    Cu   Cu  
 |    |  Cu   Cu       Cu    Cu    |  
 | Cu | Cu  Cu   Cu    Cu   Cu     |  
 |    |     Cu   Cu    Cu Cu    Cu |  
 |    Cu   Cu    Cu       Cu   CCu |  
 |    Cu   Cu  Cu   Cu    Cu       |  
 |   CCu       Cu   Cu       Cu    |  
 |    |  Cu   Cu    Cu Cu    Cu    |  
 | Cu | Cu    Cu       Cu    Cu    |  
 | Cu | Cu  Cu   Cu    Cu          |  
 |    |     Cu   Cu       Cu    Cu |  
 |    Cu   Cu        Cu   Cu       |  
 |    Cu            Cu       Cu    |  
 |    |                            |  
 |    |  Cu            Cul         |  
 |    |                            |  
 |    |                            |  
 |    |                            |  
 |    |                            |  
 |    |                            |  
 |    |                            |  
 |    .----------------------------.  
 |   /                            /   
 |  /                            /    
 | /                            /     
 |/                            /      
 *----------------------------*       

Positions:
   0 Cu     3.153614    0.001320   10.116203    ( 0.0000,  0.0000,  0.0000)
   1 Cu     1.439736    1.852294   10.652420    ( 0.0000,  0.0000,  0.0000)
   2 Cu     7.189868    1.852609   10.604916    ( 0.0000,  0.0000,  0.0000)
   3 Cu     9.030548    0.021014   10.044235    ( 0.0000,  0.0000,  0.0000)
   4 Cu    11.397514    0.009644   11.171104    ( 0.0000,  0.0000,  0.0000)
   5 Cu     9.659400    1.852088   11.786254    ( 0.0000,  0.0000,  0.0000)
   6 Cu     3.826680    1.849753   11.717266    ( 0.0000,  0.0000,  0.0000)
   7 Cu     5.532467   -0.026830   11.176315    ( 0.0000,  0.0000,  0.0000)
   8 Cu     7.874555    0.007388   12.330824    ( 0.0000,  0.0000,  0.0000)
   9 Cu     6.116712    1.851796   12.906263    ( 0.0000,  0.0000,  0.0000)
  10 Cu     0.257644    1.851079   12.939434    ( 0.0000,  0.0000,  0.0000)
  11 Cu     2.012848    0.000323   12.354883    ( 0.0000,  0.0000,  0.0000)
  12 Cu     4.350817    0.002644   13.529183    ( 0.0000,  0.0000,  0.0000)
  13 Cu     2.611439    1.849109   14.102605    ( 0.0000,  0.0000,  0.0000)
  14 Cu     8.456016    1.851014   14.106545    ( 0.0000,  0.0000,  0.0000)
  15 Cu    10.200268   -0.017705   13.500130    ( 0.0000,  0.0000,  0.0000)
  16 Cu     0.854601    0.000301   14.683880    ( 0.0000,  0.0000,  0.0000)
  17 Cu    10.799972    1.851109   15.254868    ( 0.0000,  0.0000,  0.0000)
  18 Cu     4.955847    1.850762   15.262479    ( 0.0000,  0.0000,  0.0000)
  19 Cu     6.708006   -0.000413   14.679922    ( 0.0000,  0.0000,  0.0000)
  20 Cu     9.045107   -0.000619   15.850734    ( 0.0000,  0.0000,  0.0000)
  21 Cu     7.287362    1.851979   16.442974    ( 0.0000,  0.0000,  0.0000)
  22 Cu     1.434993    1.849498   16.450174    ( 0.0000,  0.0000,  0.0000)
  23 Cu     3.187368    0.000865   15.870879    ( 0.0000,  0.0000,  0.0000)
  24 Cu     5.531064    0.001868   17.026416    ( 0.0000,  0.0000,  0.0000)
  25 Cu     3.775386    1.850863   17.611852    ( 0.0000,  0.0000,  0.0000)
  26 Cu     9.632420    1.850687   17.604217    ( 0.0000,  0.0000,  0.0000)
  27 Cu    11.383894   -0.001767   17.016577    ( 0.0000,  0.0000,  0.0000)
  28 Cu     2.017058    0.000914   18.213044    ( 0.0000,  0.0000,  0.0000)
  29 Cu     0.260705    1.849828   18.781356    ( 0.0000,  0.0000,  0.0000)
  30 Cu     6.111892    1.849705   18.787250    ( 0.0000,  0.0000,  0.0000)
  31 Cu     7.870857   -0.000456   18.189983    ( 0.0000,  0.0000,  0.0000)
  32 Cu    10.210682   -0.003335   19.364030    ( 0.0000,  0.0000,  0.0000)
  33 Cu     8.467033    1.851538   19.942723    ( 0.0000,  0.0000,  0.0000)
  34 Cu     2.617622    1.831869   19.966221    ( 0.0000,  0.0000,  0.0000)
  35 Cu     4.359943    0.000556   19.375211    ( 0.0000,  0.0000,  0.0000)
  36 Cu     6.718042   -0.000686   20.522349    ( 0.0000,  0.0000,  0.0000)
  37 Cu     4.944983    1.856186   21.137836    ( 0.0000,  0.0000,  0.0000)
  38 Cu    10.804741    1.848356   21.109199    ( 0.0000,  0.0000,  0.0000)
  39 Cu     0.863578   -0.001002   20.538595    ( 0.0000,  0.0000,  0.0000)
  40 Cu     3.156078   -0.000576   21.827528    ( 0.0000,  0.0000,  0.0000)
  41 Cu     1.420267    1.857950   22.296782    ( 0.0000,  0.0000,  0.0000)
  42 Cu     7.287701    1.820465   22.294293    ( 0.0000,  0.0000,  0.0000)
  43 Cu     9.014912   -0.003406   21.741178    ( 0.0000,  0.0000,  0.0000)
  44 Cu    11.392135   -0.001724   22.826493    ( 0.0000,  0.0000,  0.0000)
  45 Cu     9.665875    1.848556   23.348125    ( 0.0000,  0.0000,  0.0000)
  46 Cu     3.785127    1.869077   23.422744    ( 0.0000,  0.0000,  0.0000)
  47 Cu     5.518857   -0.000568   22.807173    ( 0.0000,  0.0000,  0.0000)
  48 Cu     3.151495    3.703050   10.120427    ( 0.0000,  0.0000,  0.0000)
  49 Cu     1.425469    5.553175   10.642288    ( 0.0000,  0.0000,  0.0000)
  50 Cu     7.298969    5.552014   10.662133    ( 0.0000,  0.0000,  0.0000)
  51 Cu     9.032393    3.681174   10.044997    ( 0.0000,  0.0000,  0.0000)
  52 Cu    11.397088    3.693691   11.172312    ( 0.0000,  0.0000,  0.0000)
  53 Cu     9.661305    5.551995   11.640361    ( 0.0000,  0.0000,  0.0000)
  54 Cu     3.803262    5.554790   11.727809    ( 0.0000,  0.0000,  0.0000)
  55 Cu     5.530315    3.730245   11.175004    ( 0.0000,  0.0000,  0.0000)
  56 Cu     7.873409    3.694883   12.331057    ( 0.0000,  0.0000,  0.0000)
  57 Cu     6.099799    5.552073   12.947349    ( 0.0000,  0.0000,  0.0000)
  58 Cu     0.250638    5.552451   12.930853    ( 0.0000,  0.0000,  0.0000)
  59 Cu     2.013123    3.703235   12.359849    ( 0.0000,  0.0000,  0.0000)
  60 Cu     4.350974    3.699762   13.526907    ( 0.0000,  0.0000,  0.0000)
  61 Cu     2.607646    5.554755   14.105267    ( 0.0000,  0.0000,  0.0000)
  62 Cu     8.458307    5.550937   14.093870    ( 0.0000,  0.0000,  0.0000)
  63 Cu    10.200466    3.719458   13.503421    ( 0.0000,  0.0000,  0.0000)
  64 Cu     0.854254    3.701654   14.688053    ( 0.0000,  0.0000,  0.0000)
  65 Cu    10.801506    5.550520   15.256650    ( 0.0000,  0.0000,  0.0000)
  66 Cu     4.947608    5.551900   15.279793    ( 0.0000,  0.0000,  0.0000)
  67 Cu     6.706678    3.701680   14.682161    ( 0.0000,  0.0000,  0.0000)
  68 Cu     9.043316    3.700611   15.857654    ( 0.0000,  0.0000,  0.0000)
  69 Cu     7.287657    5.549584   16.442852    ( 0.0000,  0.0000,  0.0000)
  70 Cu     1.434957    5.553196   16.452856    ( 0.0000,  0.0000,  0.0000)
  71 Cu     3.186192    3.700699   15.865412    ( 0.0000,  0.0000,  0.0000)
  72 Cu     5.531434    3.699464   17.026514    ( 0.0000,  0.0000,  0.0000)
  73 Cu     3.773512    5.552016   17.618869    ( 0.0000,  0.0000,  0.0000)
  74 Cu     9.631284    5.550635   17.598729    ( 0.0000,  0.0000,  0.0000)
  75 Cu    11.383894    3.701973   17.019339    ( 0.0000,  0.0000,  0.0000)
  76 Cu     2.018721    3.700366   18.214814    ( 0.0000,  0.0000,  0.0000)
  77 Cu     0.260362    5.551095   18.785494    ( 0.0000,  0.0000,  0.0000)
  78 Cu     6.110438    5.551909   18.789273    ( 0.0000,  0.0000,  0.0000)
  79 Cu     7.862724    3.700704   18.207039    ( 0.0000,  0.0000,  0.0000)
  80 Cu    10.206753    3.702362   19.366737    ( 0.0000,  0.0000,  0.0000)
  81 Cu     8.467164    5.548938   19.940249    ( 0.0000,  0.0000,  0.0000)
  82 Cu     2.617819    5.569295   19.969516    ( 0.0000,  0.0000,  0.0000)
  83 Cu     4.362574    3.700405   19.363083    ( 0.0000,  0.0000,  0.0000)
  84 Cu     6.701431    3.699717   20.562924    ( 0.0000,  0.0000,  0.0000)
  85 Cu     4.943886    5.544454   21.137789    ( 0.0000,  0.0000,  0.0000)
  86 Cu    10.805034    5.550942   21.114227    ( 0.0000,  0.0000,  0.0000)
  87 Cu     0.856657    3.700353   20.529932    ( 0.0000,  0.0000,  0.0000)
  88 Cu     3.158627    3.699341   21.682610    ( 0.0000,  0.0000,  0.0000)
  89 Cu     1.419953    5.541543   22.297997    ( 0.0000,  0.0000,  0.0000)
  90 Cu     7.285581    5.578983   22.292888    ( 0.0000,  0.0000,  0.0000)
  91 Cu     8.990478    3.701746   21.751796    ( 0.0000,  0.0000,  0.0000)
  92 Cu    11.377490    3.699114   22.816593    ( 0.0000,  0.0000,  0.0000)
  93 Cu     9.663849    5.549916   23.352463    ( 0.0000,  0.0000,  0.0000)
  94 Cu     3.787228    5.531663   23.423296    ( 0.0000,  0.0000,  0.0000)
  95 Cu     5.628581    3.698843   22.863294    ( 0.0000,  0.0000,  0.0000)
  96 Cl     4.229543    3.710242   24.948484    ( 0.0000,  0.0000,  0.0000)
  97 Cl     8.590443    1.851257    8.517371    ( 0.0000,  0.0000,  0.0000)

Unit cell:
           periodic     x           y           z      points  spacing
  1. axis:    yes   11.703590    0.000000    0.000000    70     0.1672
  2. axis:    yes    0.000000    7.402000    0.000000    42     0.1762
  3. axis:    no     0.000000    0.000000   33.459128   192     0.1743

  Lengths:  11.703590   7.402000  33.459128
  Angles:   90.000000  90.000000  90.000000

Effective grid spacing dv^(1/3) = 0.1725

     iter     time        total  log10-change:
                         energy  eigst   dens
iter:   1 02:37:00 -7341.377000  -5.09
iter:   2 02:40:24 -7341.376870  -6.22  -4.21c
iter:   3 02:43:48 -7341.376895c -6.85  -4.30c
iter:   4 02:47:14 -7341.376797c -6.78  -4.24c
iter:   5 02:50:39 -7341.376652c -6.06  -4.37c
iter:   6 02:54:04 -7341.376632c -7.08  -4.57c
iter:   7 02:57:29 -7341.376642c -7.51c -4.90c

Converged after 7 iterations.

Dipole moment: (21.186083, 0.531119, 0.001671) |e|*Ang

Energy contributions relative to reference atoms: (reference = -4347169.275539)

Kinetic:       +684.656430
Potential:     -765.108029
External:        +0.000000
XC:            -7259.111360
Entropy (-ST):   -0.938210
Local:           -1.344579
--------------------------
Free energy:   -7341.845748
Extrapolated:  -7341.376642

Showing only first 2 kpts
 Kpt  Band  Eigenvalues  Occupancy
  0   533      0.33127    0.75745
  0   534      0.40692    0.44487
  0   535      0.42055    0.39953
  0   536      0.45751    0.29424

  1   533     -0.02117    1.90777
  1   534      0.04043    1.83568
  1   535      0.12044    1.66773
  1   536      0.12952    1.64181


Fermi level: 0.28177

No gap

Forces in eV/Ang:
  0 Cu   -0.00315   -0.00795   -0.00215
  1 Cu   -0.00117   -0.00238   -0.00254
  2 Cu    0.00512   -0.00409   -0.00695
  3 Cu   -0.00835    0.01212   -0.01381
  4 Cu   -0.00103   -0.00670    0.00709
  5 Cu   -0.00027   -0.00185   -0.00717
  6 Cu   -0.00300    0.00173   -0.01168
  7 Cu   -0.00463   -0.00920    0.00158
  8 Cu    0.00199   -0.00436   -0.00400
  9 Cu    0.00037   -0.00107    0.00715
 10 Cu    0.00680    0.00097    0.00013
 11 Cu   -0.00199    0.00387   -0.00134
 12 Cu   -0.00257    0.00195   -0.00604
 13 Cu   -0.00216    0.00060   -0.00715
 14 Cu   -0.00534    0.00058   -0.00206
 15 Cu    0.00125   -0.00618    0.00475
 16 Cu   -0.00294    0.00363    0.00178
 17 Cu   -0.00685    0.00045    0.01002
 18 Cu    0.00631   -0.00252   -0.00447
 19 Cu    0.00091    0.00360   -0.00484
 20 Cu   -0.00377    0.00376    0.00825
 21 Cu   -0.00222   -0.00371   -0.00043
 22 Cu    0.00197    0.00314   -0.00016
 23 Cu    0.00413   -0.00042   -0.00810
 24 Cu    0.00707   -0.00426   -0.00602
 25 Cu    0.00612   -0.00015   -0.00362
 26 Cu   -0.00333   -0.00132    0.00412
 27 Cu   -0.00167    0.00527    0.00258
 28 Cu    0.00591   -0.00151   -0.00418
 29 Cu    0.00122    0.00357   -0.00267
 30 Cu   -0.00363    0.00196    0.00857
 31 Cu    0.00016   -0.00199    0.00722
 32 Cu   -0.00217    0.00213   -0.00384
 33 Cu    0.00138    0.00152    0.00509
 34 Cu    0.00222   -0.00371   -0.00751
 35 Cu    0.00070   -0.00289   -0.00322
 36 Cu   -0.00279   -0.00033    0.00641
 37 Cu   -0.00424    0.00009    0.00539
 38 Cu    0.00433    0.00420    0.00407
 39 Cu    0.00518    0.00029   -0.00562
 40 Cu   -0.00142    0.00383    0.00483
 41 Cu    0.00367   -0.00654   -0.00049
 42 Cu    0.00021   -0.00418    0.00340
 43 Cu    0.00539    0.00226    0.00019
 44 Cu    0.00009    0.00193   -0.00264
 45 Cu   -0.00062   -0.00729    0.00368
 46 Cu    0.01592    0.02237    0.02628
 47 Cu    0.00549    0.00649    0.00234
 48 Cu   -0.00019    0.00659   -0.00211
 49 Cu   -0.00015   -0.00154    0.00289
 50 Cu   -0.00533    0.00295   -0.00352
 51 Cu   -0.01083   -0.01007   -0.01458
 52 Cu   -0.00072    0.00709    0.00297
 53 Cu    0.00403   -0.00013   -0.00292
 54 Cu   -0.00604   -0.00236   -0.00083
[...]
   4 Cu    11.397514    0.009644   11.171104    ( 0.0000,  0.0000,  0.0000)
   5 Cu     9.659400    1.852088   11.786254    ( 0.0000,  0.0000,  0.0000)
   6 Cu     3.826680    1.849753   11.717266    ( 0.0000,  0.0000,  0.0000)
   7 Cu     5.532467   -0.026830   11.176315    ( 0.0000,  0.0000,  0.0000)
   8 Cu     7.874555    0.007388   12.330824    ( 0.0000,  0.0000,  0.0000)
   9 Cu     6.116712    1.851796   12.906263    ( 0.0000,  0.0000,  0.0000)
  10 Cu     0.257644    1.851079   12.939434    ( 0.0000,  0.0000,  0.0000)
  11 Cu     2.012848    0.000323   12.354883    ( 0.0000,  0.0000,  0.0000)
  12 Cu     4.350817    0.002644   13.529183    ( 0.0000,  0.0000,  0.0000)
  13 Cu     2.611439    1.849109   14.102605    ( 0.0000,  0.0000,  0.0000)
  14 Cu     8.456016    1.851014   14.106545    ( 0.0000,  0.0000,  0.0000)
  15 Cu    10.200268   -0.017705   13.500130    ( 0.0000,  0.0000,  0.0000)
  16 Cu     0.854601    0.000301   14.683880    ( 0.0000,  0.0000,  0.0000)
  17 Cu    10.799972    1.851109   15.254868    ( 0.0000,  0.0000,  0.0000)
  18 Cu     4.955847    1.850762   15.262479    ( 0.0000,  0.0000,  0.0000)
  19 Cu     6.708006   -0.000413   14.679922    ( 0.0000,  0.0000,  0.0000)
  20 Cu     9.045107   -0.000619   15.850734    ( 0.0000,  0.0000,  0.0000)
  21 Cu     7.287362    1.851979   16.442974    ( 0.0000,  0.0000,  0.0000)
  22 Cu     1.434993    1.849498   16.450174    ( 0.0000,  0.0000,  0.0000)
  23 Cu     3.187368    0.000865   15.870879    ( 0.0000,  0.0000,  0.0000)
  24 Cu     5.531064    0.001868   17.026416    ( 0.0000,  0.0000,  0.0000)
  25 Cu     3.775386    1.850863   17.611852    ( 0.0000,  0.0000,  0.0000)
  26 Cu     9.632420    1.850687   17.604217    ( 0.0000,  0.0000,  0.0000)
  27 Cu    11.383894   -0.001767   17.016577    ( 0.0000,  0.0000,  0.0000)
  28 Cu     2.017058    0.000914   18.213044    ( 0.0000,  0.0000,  0.0000)
  29 Cu     0.260705    1.849828   18.781356    ( 0.0000,  0.0000,  0.0000)
  30 Cu     6.111892    1.849705   18.787250    ( 0.0000,  0.0000,  0.0000)
  31 Cu     7.870857   -0.000456   18.189983    ( 0.0000,  0.0000,  0.0000)
  32 Cu    10.210682   -0.003335   19.364030    ( 0.0000,  0.0000,  0.0000)
  33 Cu     8.467033    1.851538   19.942723    ( 0.0000,  0.0000,  0.0000)
  34 Cu     2.617622    1.831869   19.966221    ( 0.0000,  0.0000,  0.0000)
  35 Cu     4.359943    0.000556   19.375211    ( 0.0000,  0.0000,  0.0000)
  36 Cu     6.718042   -0.000686   20.522349    ( 0.0000,  0.0000,  0.0000)
  37 Cu     4.944983    1.856186   21.137836    ( 0.0000,  0.0000,  0.0000)
  38 Cu    10.804741    1.848356   21.109199    ( 0.0000,  0.0000,  0.0000)
  39 Cu     0.863578   -0.001002   20.538595    ( 0.0000,  0.0000,  0.0000)
  40 Cu     3.156078   -0.000576   21.827528    ( 0.0000,  0.0000,  0.0000)
  41 Cu     1.420267    1.857950   22.296782    ( 0.0000,  0.0000,  0.0000)
  42 Cu     7.287701    1.820465   22.294293    ( 0.0000,  0.0000,  0.0000)
  43 Cu     9.014912   -0.003406   21.741178    ( 0.0000,  0.0000,  0.0000)
  44 Cu    11.392135   -0.001724   22.826493    ( 0.0000,  0.0000,  0.0000)
  45 Cu     9.665875    1.848556   23.348125    ( 0.0000,  0.0000,  0.0000)
  46 Cu     3.785127    1.869077   23.422744    ( 0.0000,  0.0000,  0.0000)
  47 Cu     5.518857   -0.000568   22.807173    ( 0.0000,  0.0000,  0.0000)
  48 Cu     3.151495    3.703050   10.120427    ( 0.0000,  0.0000,  0.0000)
  49 Cu     1.425469    5.553175   10.642288    ( 0.0000,  0.0000,  0.0000)
  50 Cu     7.298969    5.552014   10.662133    ( 0.0000,  0.0000,  0.0000)
  51 Cu     9.032393    3.681174   10.044997    ( 0.0000,  0.0000,  0.0000)
  52 Cu    11.397088    3.693691   11.172312    ( 0.0000,  0.0000,  0.0000)
  53 Cu     9.661305    5.551995   11.640361    ( 0.0000,  0.0000,  0.0000)
  54 Cu     3.803262    5.554790   11.727809    ( 0.0000,  0.0000,  0.0000)
  55 Cu     5.530315    3.730245   11.175004    ( 0.0000,  0.0000,  0.0000)
  56 Cu     7.873409    3.694883   12.331057    ( 0.0000,  0.0000,  0.0000)
  57 Cu     6.099799    5.552073   12.947349    ( 0.0000,  0.0000,  0.0000)
  58 Cu     0.250638    5.552451   12.930853    ( 0.0000,  0.0000,  0.0000)
  59 Cu     2.013123    3.703235   12.359849    ( 0.0000,  0.0000,  0.0000)
  60 Cu     4.350974    3.699762   13.526907    ( 0.0000,  0.0000,  0.0000)
  61 Cu     2.607646    5.554755   14.105267    ( 0.0000,  0.0000,  0.0000)
  62 Cu     8.458307    5.550937   14.093870    ( 0.0000,  0.0000,  0.0000)
  63 Cu    10.200466    3.719458   13.503421    ( 0.0000,  0.0000,  0.0000)
  64 Cu     0.854254    3.701654   14.688053    ( 0.0000,  0.0000,  0.0000)
  65 Cu    10.801506    5.550520   15.256650    ( 0.0000,  0.0000,  0.0000)
  66 Cu     4.947608    5.551900   15.279793    ( 0.0000,  0.0000,  0.0000)
  67 Cu     6.706678    3.701680   14.682161    ( 0.0000,  0.0000,  0.0000)
  68 Cu     9.043316    3.700611   15.857654    ( 0.0000,  0.0000,  0.0000)
  69 Cu     7.287657    5.549584   16.442852    ( 0.0000,  0.0000,  0.0000)
  70 Cu     1.434957    5.553196   16.452856    ( 0.0000,  0.0000,  0.0000)
  71 Cu     3.186192    3.700699   15.865412    ( 0.0000,  0.0000,  0.0000)
  72 Cu     5.531434    3.699464   17.026514    ( 0.0000,  0.0000,  0.0000)
  73 Cu     3.773512    5.552016   17.618869    ( 0.0000,  0.0000,  0.0000)
  74 Cu     9.631284    5.550635   17.598729    ( 0.0000,  0.0000,  0.0000)
  75 Cu    11.383894    3.701973   17.019339    ( 0.0000,  0.0000,  0.0000)
  76 Cu     2.018721    3.700366   18.214814    ( 0.0000,  0.0000,  0.0000)
  77 Cu     0.260362    5.551095   18.785494    ( 0.0000,  0.0000,  0.0000)
  78 Cu     6.110438    5.551909   18.789273    ( 0.0000,  0.0000,  0.0000)
  79 Cu     7.862724    3.700704   18.207039    ( 0.0000,  0.0000,  0.0000)
  80 Cu    10.206753    3.702362   19.366737    ( 0.0000,  0.0000,  0.0000)
  81 Cu     8.467164    5.548938   19.940249    ( 0.0000,  0.0000,  0.0000)
  82 Cu     2.617819    5.569295   19.969516    ( 0.0000,  0.0000,  0.0000)
  83 Cu     4.362574    3.700405   19.363083    ( 0.0000,  0.0000,  0.0000)
  84 Cu     6.701431    3.699717   20.562924    ( 0.0000,  0.0000,  0.0000)
  85 Cu     4.943886    5.544454   21.137789    ( 0.0000,  0.0000,  0.0000)
  86 Cu    10.805034    5.550942   21.114227    ( 0.0000,  0.0000,  0.0000)
  87 Cu     0.856657    3.700353   20.529932    ( 0.0000,  0.0000,  0.0000)
  88 Cu     3.158627    3.699341   21.682610    ( 0.0000,  0.0000,  0.0000)
  89 Cu     1.419953    5.541543   22.297997    ( 0.0000,  0.0000,  0.0000)
  90 Cu     7.285581    5.578983   22.292888    ( 0.0000,  0.0000,  0.0000)
  91 Cu     8.990478    3.701746   21.751796    ( 0.0000,  0.0000,  0.0000)
  92 Cu    11.377490    3.699114   22.816593    ( 0.0000,  0.0000,  0.0000)
  93 Cu     9.663849    5.549916   23.352463    ( 0.0000,  0.0000,  0.0000)
  94 Cu     3.787228    5.531663   23.423296    ( 0.0000,  0.0000,  0.0000)
  95 Cu     5.628581    3.698843   22.863294    ( 0.0000,  0.0000,  0.0000)
  96 Cl     4.229543    3.700242   24.958484    ( 0.0000,  0.0000,  0.0000)
  97 Cl     8.590443    1.851257    8.517371    ( 0.0000,  0.0000,  0.0000)

Unit cell:
           periodic     x           y           z      points  spacing
  1. axis:    yes   11.703590    0.000000    0.000000    70     0.1672
  2. axis:    yes    0.000000    7.402000    0.000000    42     0.1762
  3. axis:    no     0.000000    0.000000   33.459128   192     0.1743

  Lengths:  11.703590   7.402000  33.459128
  Angles:   90.000000  90.000000  90.000000

Effective grid spacing dv^(1/3) = 0.1725

     iter     time        total  log10-change:
                         energy  eigst   dens
iter:   1 03:35:45 -7341.544830  -4.05
iter:   2 03:39:09 -7342.013664  -3.33  -2.75
iter:   3 03:42:34 -7341.380985  -3.82  -2.46
iter:   4 03:45:59 -7341.377928  -5.23  -3.68
iter:   5 03:49:24 -7341.377241c -5.45  -4.00
iter:   6 03:52:49 -7341.376707c -6.10  -4.11c
iter:   7 03:56:14 -7341.376635c -6.49  -4.35c
iter:   8 03:59:40 -7341.376595c -6.52  -4.51c
iter:   9 04:03:04 -7341.376607c -7.10  -4.66c
iter:  10 04:06:28 -7341.376570c -7.58c -4.54c

Converged after 10 iterations.

Dipole moment: (21.187967, 0.531524, -0.006576) |e|*Ang

Energy contributions relative to reference atoms: (reference = -4347169.275539)

Kinetic:       +684.664145
Potential:     -765.123059
External:        +0.000000
XC:            -7259.079244
Entropy (-ST):   -0.938180
Local:           -1.369323
--------------------------
Free energy:   -7341.845660
Extrapolated:  -7341.376570

Showing only first 2 kpts
 Kpt  Band  Eigenvalues  Occupancy
  0   533      0.32912    0.75772
  0   534      0.40487    0.44475
  0   535      0.41850    0.39939
  0   536      0.45553    0.29396

  1   533     -0.02292    1.90747
  1   534      0.03838    1.83563
  1   535      0.11849    1.66737
  1   536      0.12754    1.64150


Fermi level: 0.27968

No gap

Forces in eV/Ang:
  0 Cu   -0.00274   -0.00812   -0.00103
  1 Cu   -0.00119   -0.00238   -0.00171
  2 Cu    0.00516   -0.00413   -0.00645
  3 Cu   -0.00893    0.01250   -0.01341
  4 Cu   -0.00172   -0.00683    0.00832
  5 Cu   -0.00068   -0.00181   -0.00579
  6 Cu   -0.00222    0.00173   -0.01118
  7 Cu   -0.00423   -0.00926    0.00237
  8 Cu    0.00206   -0.00438   -0.00306
  9 Cu    0.00096   -0.00106    0.00772
 10 Cu    0.00611    0.00112    0.00170
 11 Cu   -0.00191    0.00363   -0.00052
 12 Cu   -0.00223    0.00170   -0.00522
 13 Cu   -0.00246    0.00072   -0.00642
 14 Cu   -0.00502    0.00067   -0.00135
 15 Cu    0.00068   -0.00618    0.00620
 16 Cu   -0.00359    0.00351    0.00223
 17 Cu   -0.00711    0.00057    0.00969
 18 Cu    0.00675   -0.00235   -0.00519
 19 Cu    0.00173    0.00361   -0.00541
 20 Cu   -0.00322    0.00383    0.00642
 21 Cu   -0.00170   -0.00351   -0.00246
 22 Cu    0.00131    0.00324   -0.00129
 23 Cu    0.00341   -0.00047   -0.00865
 24 Cu    0.00699   -0.00388   -0.00683
 25 Cu    0.00578   -0.00024   -0.00224
 26 Cu   -0.00279   -0.00104    0.00179
 27 Cu   -0.00119    0.00533    0.00045
 28 Cu    0.00638   -0.00114   -0.00326
 29 Cu    0.00282    0.00356   -0.00242
 30 Cu   -0.00486    0.00232    0.01067
 31 Cu   -0.00034   -0.00188    0.00651
 32 Cu   -0.00129    0.00244   -0.00300
 33 Cu   -0.00028    0.00183    0.00860
 34 Cu    0.00314   -0.00546   -0.00486
 35 Cu    0.00050   -0.00257    0.00127
 36 Cu   -0.00526    0.00067    0.00968
 37 Cu   -0.00555   -0.00400    0.00091
 38 Cu    0.00527    0.00407    0.00693
 39 Cu    0.00807    0.00092   -0.00223
 40 Cu   -0.00189    0.00030   -0.00202
 41 Cu    0.00247   -0.00771   -0.00455
 42 Cu    0.00361   -0.00654   -0.00133
 43 Cu    0.00460    0.00240    0.00177
 44 Cu   -0.00068    0.00133   -0.00462
 45 Cu   -0.00001   -0.00796    0.00246
 46 Cu    0.01607    0.02819    0.03146
 47 Cu    0.00654   -0.00380   -0.00047
 48 Cu    0.00025    0.00675   -0.00099
 49 Cu   -0.00005   -0.00152    0.00374
 50 Cu   -0.00541    0.00298   -0.00221
 51 Cu   -0.01133   -0.01048   -0.01424
 52 Cu   -0.00141    0.00721    0.00433
 53 Cu    0.00319   -0.00018   -0.00219
 54 Cu   -0.00549   -0.00236   -0.00038
 55 Cu   -0.00350    0.00682    0.00013
 56 Cu    0.00515    0.00315   -0.00029
 57 Cu    0.00460   -0.00059   -0.00920
 58 Cu   -0.00587   -0.00118    0.00524
 59 Cu   -0.00441   -0.00451   -0.00427
 60 Cu   -0.00039   -0.00130   -0.00671
 61 Cu    0.00194   -0.00236    0.00388
 62 Cu    0.00163    0.00237    0.00333
 63 Cu   -0.00170    0.00542    0.00514
 64 Cu   -0.00211   -0.00374    0.00229
 65 Cu   -0.00568    0.00110    0.00250
 66 Cu    0.00030    0.00164   -0.00902
 67 Cu    0.00493   -0.00238   -0.00962
 68 Cu   -0.00501    0.00043    0.00196
 69 Cu   -0.00584    0.00390    0.00531
 70 Cu    0.00091   -0.00528   -0.00406
 71 Cu    0.00278    0.00158   -0.00522
 72 Cu    0.00226    0.00347    0.00063
 73 Cu    0.00394   -0.00387   -0.00716
 74 Cu   -0.00396   -0.00003    0.00499
 75 Cu   -0.00199   -0.00330   -0.00233
 76 Cu    0.00813   -0.00058   -0.00992
 77 Cu    0.00437   -0.00328   -0.00201
 78 Cu   -0.00104   -0.00343    0.00677
 79 Cu   -0.00684    0.00244    0.00364
 80 Cu    0.00257   -0.00084    0.00692
 81 Cu    0.00149   -0.00222    0.00783
 82 Cu    0.00089    0.00619   -0.00521
 83 Cu    0.00517   -0.00064    0.00094
 84 Cu    0.00025    0.00087   -0.00891
 85 Cu   -0.00277    0.00504    0.00500
 86 Cu    0.00284   -0.00311    0.00311
 87 Cu   -0.00418   -0.00096   -0.00048
 88 Cu    0.00414    0.00255    0.01382
 89 Cu    0.00295    0.00733   -0.00816
 90 Cu    0.00366    0.00906   -0.00290
 91 Cu    0.00472   -0.00183    0.01190
 92 Cu    0.00079    0.00256    0.00147
 93 Cu    0.00272    0.00939    0.00221
 94 Cu    0.01306   -0.03030    0.03185
 95 Cu   -0.01385    0.00502    0.02187
 96 Cl    0.00330    0.00169   -0.03131
 97 Cl   -0.00682    0.00083    0.00368

Timing:                                      incl.     excl.
-------------------------------------------------------------------
Density initialized from wave functions:    74.051    74.051   0.4% |
 Symmetrize density:                         0.000     0.000   0.0% |
Forces:                                    566.447   566.447   3.2% ||
Hamiltonian:                               116.792     0.176   0.0% |
 Atomic:                                     4.323     1.088   0.0% |
  XC Correction:                             3.236     3.236   0.0% |
 Calculate atomic Hamiltonians:             41.512    41.512   0.2% |
 Communicate:                                0.987     0.987   0.0% |
 Initialize Hamiltonian:                     0.002     0.002   0.0% |
 Poisson:                                    0.083     0.083   0.0% |
 XC 3D grid:                                69.709     8.279   0.0% |
  VdW-DF integral:                          61.430     0.413   0.0% |
   Convolution:                              5.363     5.363   0.0% |
   FFT:                                      2.029     2.029   0.0% |
   gather:                                  16.990    16.990   0.1% |
   hmm1:                                     2.451     2.451   0.0% |
   hmm2:                                     2.539     2.539   0.0% |
   iFFT:                                     2.052     2.052   0.0% |
   potential:                               21.640     0.215   0.0% |
    collect:                                 2.831     2.831   0.0% |
    p1:                                     10.591    10.591   0.1% |
    p2:                                      4.128     4.128   0.0% |
    sum:                                     3.875     3.875   0.0% |
   splines:                                  7.953     7.953   0.0% |
LCAO initialization:                       937.825     0.651   0.0% |
 LCAO eigensolver:                          29.717     0.003   0.0% |
  Blacs Orbital Layouts:                     3.401     0.001   0.0% |
   General diagonalize:                      3.361     3.361   0.0% |
   Redistribute coefs:                       0.027     0.027   0.0% |
   Send coefs to domains:                    0.012     0.012   0.0% |
  Calculate projections:                     0.036     0.036   0.0% |
  Distribute overlap matrix:                25.789     0.002   0.0% |
   Scalapack redistribute:                   0.034     0.034   0.0% |
   blocked summation:                       25.754    25.754   0.1% |
  Potential matrix:                          0.157     0.157   0.0% |
  SparseAtomicCorrection:                    0.020     0.020   0.0% |
  Sum over cells:                            0.311     0.311   0.0% |
 LCAO to grid:                             900.547   900.547   5.2% |-|
 Set positions (LCAO WFS):                   6.910     0.031   0.0% |
  Basic WFS set positions:                   0.006     0.006   0.0% |
  Basis functions set positions:             0.001     0.001   0.0% |
  P tci:                                     0.000     0.000   0.0% |
  ST tci:                                    1.135     1.135   0.0% |
  Scalapack redistribute:                    0.106     0.106   0.0% |
  blocked summation:                         5.277     5.277   0.0% |
  mktci:                                     0.354     0.354   0.0% |
PWDescriptor:                                1.100     1.100   0.0% |
Redistribute:                                0.007     0.007   0.0% |
SCF-cycle:                               15561.116   199.321   1.1% |
 Davidson:                               13318.597  4186.427  24.0% |---------|
  Apply H:                                 842.218   824.282   4.7% |-|
   HMM T:                                   17.936    17.936   0.1% |
  Subspace diag:                          2010.732     0.017   0.0% |
   calc_h_matrix:                         1255.005   420.492   2.4% ||
    Apply H:                               834.513   815.723   4.7% |-|
     HMM T:                                 18.790    18.790   0.1% |
   diagonalize:                             37.276    37.276   0.2% |
   rotate_psi:                             718.433   718.433   4.1% |-|
  calc. matrices:                         4486.917  2865.978  16.4% |------|
   Apply H:                               1620.939  1584.825   9.1% |---|
    HMM T:                                  36.114    36.114   0.2% |
  diagonalize:                             350.387   350.387   2.0% ||
  rotate_psi:                             1441.917  1441.917   8.3% |--|
 Density:                                  852.070     0.004   0.0% |
  Atomic density matrices:                   2.179     2.179   0.0% |
  Mix:                                     418.714   418.714   2.4% ||
  Multipole moments:                         0.143     0.143   0.0% |
  Pseudo density:                          431.031   431.027   2.5% ||
   Symmetrize density:                       0.004     0.004   0.0% |
 Hamiltonian:                             1043.021     1.605   0.0% |
  Atomic:                                   41.282     9.321   0.1% |
   XC Correction:                           31.961    31.961   0.2% |
  Calculate atomic Hamiltonians:           391.549   391.549   2.2% ||
  Communicate:                              11.654    11.654   0.1% |
  Poisson:                                   0.691     0.691   0.0% |
  XC 3D grid:                              596.240    80.826   0.5% |
   VdW-DF integral:                        515.414     3.753   0.0% |
    Convolution:                            48.241    48.241   0.3% |
    FFT:                                    18.279    18.279   0.1% |
    gather:                                170.186   170.186   1.0% |
    hmm1:                                   24.054    24.054   0.1% |
    hmm2:                                   24.426    24.426   0.1% |
    iFFT:                                   19.160    19.160   0.1% |
    potential:                             207.313     2.217   0.0% |
     collect:                               27.352    27.352   0.2% |
     p1:                                   103.713   103.713   0.6% |
     p2:                                    37.097    37.097   0.2% |
     sum:                                   36.934    36.934   0.2% |
    splines:                                 0.001     0.001   0.0% |
 Orthonormalize:                           148.107     0.003   0.0% |
  calc_s_matrix:                            19.354    19.354   0.1% |
  inverse-cholesky:                          3.496     3.496   0.0% |
  projections:                              91.739    91.739   0.5% |
  rotate_psi_s:                             33.514    33.514   0.2% |
Set symmetry:                                0.002     0.002   0.0% |
Other:                                     188.846   188.846   1.1% |
-------------------------------------------------------------------
Total:                                             17446.186 100.0%

Memory usage: 2.44 GiB
Date: Tue Nov  8 04:07:48 2022
