
  ___ ___ ___ _ _ _  
 |   |   |_  | | | | 
 | | | | | . | | | | 
 |__ |  _|___|_____|  22.1.0
 |___|_|             

User:   thorkong@node437.cluster
Date:   Sat Oct 15 09:13:19 2022
Arch:   x86_64
Pid:    21658
Python: 3.10.5
gpaw:   /groups/kemi/thorkong/miniconda3/envs/gpaw22/lib/python3.10/site-packages/gpaw
_gpaw:  /groups/kemi/thorkong/miniconda3/envs/gpaw22/lib/python3.10/site-packages/
        _gpaw.cpython-310-x86_64-linux-gnu.so
ase:    /groups/kemi/thorkong/miniconda3/envs/gpaw22/lib/python3.10/site-packages/ase (version 3.22.1)
numpy:  /groups/kemi/thorkong/miniconda3/envs/gpaw22/lib/python3.10/site-packages/numpy (version 1.23.0)
scipy:  /groups/kemi/thorkong/miniconda3/envs/gpaw22/lib/python3.10/site-packages/scipy (version 1.8.1)
libxc:  5.2.3
units:  Angstrom and eV
cores: 32
OpenMP: True
OMP_NUM_THREADS: 1

Input parameters:
  basis: dzp
  kpts: [4 4 1]
  mode: {ecut: 600.0,
         name: pw}
  xc: BEEF-vdW

System changes: positions, numbers, cell, pbc, initial_charges, initial_magmoms 

Initialize ...

Cu-setup:
  name: Copper
  id: f1c4d45d90492f1bbfdcb091e8418fdf
  Z: 29.0
  valence: 11
  core: 18
  charge: 0.0
  file: /groups/kemi/thorkong/miniconda3/envs/gpaw22/share/gpaw/Cu.PBE.gz
  compensation charges: gauss, rc=0.33, lmax=2
  cutoffs: 2.06(filt), 2.43(core),
  valence states:
                energy  radius
    4s(1.00)    -4.609   1.164
    4p(0.00)    -0.698   1.164
    3d(10.00)    -5.039   1.058
    *s          22.603   1.164
    *p          26.513   1.164
    *d          22.172   1.058

  LCAO basis set for Cu:
    Name: dzp
    File: /groups/kemi/thorkong/miniconda3/envs/gpaw22/share/gpaw/Cu.dzp.basis.gz
    Number of radial functions: 5
    Number of spherical harmonics: 15
      l=0, rc=8.9688 Bohr: 4s-sz confined orbital
      l=2, rc=5.1719 Bohr: 3d-sz confined orbital
      l=0, rc=5.3281 Bohr: 4s-dz split-valence wave
      l=2, rc=3.1406 Bohr: 3d-dz split-valence wave
      l=1, rc=8.9688 Bohr: p-type Gaussian polarization

Cl-setup:
  name: Chlorine
  id: 726897f06f34e53cf8e33b5885a02604
  Z: 17.0
  valence: 7
  core: 10
  charge: 0.0
  file: /groups/kemi/thorkong/miniconda3/envs/gpaw22/share/gpaw/Cl.PBE.gz
  compensation charges: gauss, rc=0.25, lmax=2
  cutoffs: 1.40(filt), 1.49(core),
  valence states:
                energy  radius
    3s(2.00)   -20.689   0.794
    3p(5.00)    -8.594   0.794
    *s           6.523   0.794
    *p          18.617   0.794
    *d           0.000   0.794

  LCAO basis set for Cl:
    Name: dzp
    File: /groups/kemi/thorkong/miniconda3/envs/gpaw22/share/gpaw/Cl.dzp.basis.gz
    Number of radial functions: 5
    Number of spherical harmonics: 13
      l=0, rc=5.1719 Bohr: 3s-sz confined orbital
      l=1, rc=6.2656 Bohr: 3p-sz confined orbital
      l=0, rc=2.8281 Bohr: 3s-dz split-valence wave
      l=1, rc=3.5156 Bohr: 3p-dz split-valence wave
      l=2, rc=6.2656 Bohr: d-type Gaussian polarization

Reference energy: -4372279.174330

Spin-paired calculation

Convergence criteria:
 Maximum [total energy] change in last 3 cyles: 0.0005 eV / electron
 Maximum integral of absolute [dens]ity change: 0.0001 electrons / valence electron
 Maximum integral of absolute [eigenst]ate change: 4e-08 eV^2 / valence electron
 Maximum number of scf [iter]ations: 333
 (Square brackets indicate name in SCF output, whereas a 'c' in
 the SCF output indicates the quantity has converged.)

Symmetries present (total): 1

  ( 1  0  0)
  ( 0  1  0)
  ( 0  0  1)

16 k-points: 4 x 4 x 1 Monkhorst-Pack grid
8 k-points in the irreducible part of the Brillouin zone
       k-points in crystal coordinates                weights
   0:     0.12500000   -0.37500000    0.00000000          2/16
   1:     0.12500000   -0.12500000    0.00000000          2/16
   2:     0.12500000    0.12500000    0.00000000          2/16
   3:     0.12500000    0.37500000    0.00000000          2/16
   4:     0.37500000   -0.37500000    0.00000000          2/16
   5:     0.37500000   -0.12500000    0.00000000          2/16
   6:     0.37500000    0.12500000    0.00000000          2/16
   7:     0.37500000    0.37500000    0.00000000          2/16

Wave functions: Plane wave expansion
  Cutoff energy: 600.000 eV
  Number of coefficients (min, max): 96699, 96750
  Pulay-stress correction: 0.000000 eV/Ang^3 (de/decut=0.000000)
  Using FFTW library
  ScaLapack parameters: grid=2x2, blocksize=64
  Wavefunction extrapolation:
    Improved wavefunction reuse through dual PAW basis 

Occupation numbers: Fermi-Dirac: width=0.1000 eV
 

Eigensolver
   Davidson(niter=2) 

Densities:
  Coarse grid: 70*42*192 grid
  Fine grid: 140*84*384 grid
  Total Charge: 0.000000 

Density mixing:
  Method: separate
  Backend: pulay
  Linear mixing parameter: 0.05
  Mixing with 5 old densities
  Damping of long wave oscillations: 50 

Hamiltonian:
  XC and Coulomb potentials evaluated on a 140*84*384 grid
  Using the BEEF-vdW Exchange-Correlation functional
  External potential:
    NoExternalPotential
 

XC parameters: BEEF-vdW with 2 nearest neighbor stencil

Memory estimate:
  Process memory now: 345.85 MiB
  Calculator: 2127.06 MiB
    Density: 70.86 MiB
      Arrays: 27.99 MiB
      Localized functions: 32.10 MiB
      Mixer: 10.77 MiB
    Hamiltonian: 19.09 MiB
      Arrays: 18.30 MiB
      XC: 0.00 MiB
      Poisson: 0.00 MiB
      vbar: 0.78 MiB
    Wavefunctions: 2037.12 MiB
      Arrays psit_nG: 966.97 MiB
      Eigensolver: 1039.83 MiB
      Projections: 4.45 MiB
      Projectors: 3.69 MiB
      PW-descriptor: 22.18 MiB

Total number of cores used: 32
Parallelization over k-points: 8
Domain decomposition: 1 x 1 x 4
                      2 x 2 x 8 (xc only)

Number of atoms: 100
Number of atomic orbitals: 1492
Number of bands in calculation: 655
Number of valence electrons: 1084
Bands to converge: occupied

... initialized

Initializing position-dependent things.

Density initialized from atomic densities
Creating initial wave functions:
  655 bands from LCAO basis set

      .----------------------------.  
     /|                            |  
    / |                            |  
   /  |                            |  
  /   |                            |  
 *    |                            |  
 |    |                            |  
 |    |                            |  
 |    |                            |  
 |    |                            |  
 |    |                            |  
 |    |                            |  
 |    |                            |  
 |    |             Cu             |  
 |    | Cl    Cu             Cu    |  
 |    | Cu       Cu    Cu       Cu |  
 |    |     Cu   Cu Cl    Cu    Cu |  
 |    Cu   Cu    Cu Cu    Cu       |  
 |    Cu   Cu       Cu    Cu Cu    |  
 |   Cu    Cu  Cu   Cu Cu    Cu    |  
 |    |  Cu   Cu    Cu Cu    Cu    |  
 | Cu | Cu    Cu  Cu   Cu    Cu    |  
 | Cu | Cu       Cu    Cu CuCu     |  
 |    |     Cu   Cu    Cu Cu    Cu |  
 |    |    Cu    Cu Cu    Cu   CCu |  
 |    Cu   Cu       Cu    Cu Cu    |  
 |   CCu       Cu   Cu   Cu  Cu    |  
 |    |  Cu   Cu       Cu    Cu   Cu  
 | Cu | Cu    Cu       Cu    Cu    |  
 | Cu | Cu  Cu   Cu    Cu   Cu     |  
 |    |     Cu   Cu       Cu    Cu |  
 |    Cu   Cu    Cl       Cu       |  
 |    Cu       Cu   Cu             |  
 |    |                            |  
 |    |  Cu                  Cl    |  
 |    |                            |  
 |    |                            |  
 |    |                            |  
 |    |                            |  
 |    |                            |  
 |    |                            |  
 |    .----------------------------.  
 |   /                            /   
 |  /                            /    
 | /                            /     
 |/                            /      
 *----------------------------*       

Positions:
   0 Cu     3.149565    0.064873   10.065893    ( 0.0000,  0.0000,  0.0000)
   1 Cu     1.415397    1.852580   10.607717    ( 0.0000,  0.0000,  0.0000)
   2 Cu     7.330782    1.848194   10.592506    ( 0.0000,  0.0000,  0.0000)
   3 Cu     9.002347   -0.065082   10.066596    ( 0.0000,  0.0000,  0.0000)
   4 Cu    11.399972   -0.061142   11.110738    ( 0.0000,  0.0000,  0.0000)
   5 Cu     9.649232    1.849321   11.725093    ( 0.0000,  0.0000,  0.0000)
   6 Cu     3.784382    1.850871   11.747671    ( 0.0000,  0.0000,  0.0000)
   7 Cu     5.547434    0.059689   11.112319    ( 0.0000,  0.0000,  0.0000)
   8 Cu     7.857358   -0.002775   12.343686    ( 0.0000,  0.0000,  0.0000)
   9 Cu     6.119082    1.850121   12.910556    ( 0.0000,  0.0000,  0.0000)
  10 Cu     0.238926    1.850459   12.908728    ( 0.0000,  0.0000,  0.0000)
  11 Cu     2.005092    0.002517   12.341535    ( 0.0000,  0.0000,  0.0000)
  12 Cu     4.364224    0.001958   13.506010    ( 0.0000,  0.0000,  0.0000)
  13 Cu     2.601479    1.850946   14.088550    ( 0.0000,  0.0000,  0.0000)
  14 Cu     8.469380    1.849412   14.088594    ( 0.0000,  0.0000,  0.0000)
  15 Cu    10.215635   -0.002327   13.505451    ( 0.0000,  0.0000,  0.0000)
  16 Cu     0.853206    0.001405   14.675208    ( 0.0000,  0.0000,  0.0000)
  17 Cu    10.801566    1.848696   15.259798    ( 0.0000,  0.0000,  0.0000)
  18 Cu     4.949522    1.852115   15.259316    ( 0.0000,  0.0000,  0.0000)
  19 Cu     6.704353   -0.002262   14.673953    ( 0.0000,  0.0000,  0.0000)
  20 Cu     9.041894   -0.001920   15.858212    ( 0.0000,  0.0000,  0.0000)
  21 Cu     7.279660    1.847980   16.429946    ( 0.0000,  0.0000,  0.0000)
  22 Cu     1.433319    1.852553   16.438891    ( 0.0000,  0.0000,  0.0000)
  23 Cu     3.186132    0.001751   15.852071    ( 0.0000,  0.0000,  0.0000)
  24 Cu     5.524154   -0.002048   17.020062    ( 0.0000,  0.0000,  0.0000)
  25 Cu     3.771318    1.848740   17.606879    ( 0.0000,  0.0000,  0.0000)
  26 Cu     9.619139    1.852431   17.600738    ( 0.0000,  0.0000,  0.0000)
  27 Cu    11.381380    0.002518   17.029013    ( 0.0000,  0.0000,  0.0000)
  28 Cu     2.007928   -0.001615   18.199605    ( 0.0000,  0.0000,  0.0000)
  29 Cu     0.253077    1.852789   18.785010    ( 0.0000,  0.0000,  0.0000)
  30 Cu     6.104230    1.849076   18.783757    ( 0.0000,  0.0000,  0.0000)
  31 Cu     7.859461    0.001806   18.199196    ( 0.0000,  0.0000,  0.0000)
  32 Cu    10.191544    0.001086   19.370409    ( 0.0000,  0.0000,  0.0000)
  33 Cu     8.445323    1.852823   19.953544    ( 0.0000,  0.0000,  0.0000)
  34 Cu     2.593136    1.848546   19.952984    ( 0.0000,  0.0000,  0.0000)
  35 Cu     4.355967   -0.000444   19.370440    ( 0.0000,  0.0000,  0.0000)
  36 Cu     6.718381    0.000040   20.550323    ( 0.0000,  0.0000,  0.0000)
  37 Cu     4.952242    1.847962   21.117522    ( 0.0000,  0.0000,  0.0000)
  38 Cu    10.803574    1.853291   21.115353    ( 0.0000,  0.0000,  0.0000)
  39 Cu     0.838213    0.000378   20.548451    ( 0.0000,  0.0000,  0.0000)
  40 Cu     3.172938   -0.000367   21.711315    ( 0.0000,  0.0000,  0.0000)
  41 Cu     1.409750    1.790754   22.346786    ( 0.0000,  0.0000,  0.0000)
  42 Cu     7.260800    1.911697   22.348369    ( 0.0000,  0.0000,  0.0000)
  43 Cu     9.011530    0.001170   21.733978    ( 0.0000,  0.0000,  0.0000)
  44 Cu    11.329817    0.002294   22.866547    ( 0.0000,  0.0000,  0.0000)
  45 Cu     9.658286    1.915641   23.392404    ( 0.0000,  0.0000,  0.0000)
  46 Cu     3.807465    1.785555   23.393123    ( 0.0000,  0.0000,  0.0000)
  47 Cu     5.541857   -0.002074   22.851340    ( 0.0000,  0.0000,  0.0000)
  48 Cu     3.150552    3.635918   10.066596    ( 0.0000,  0.0000,  0.0000)
  49 Cu     1.478987    5.549194   10.592506    ( 0.0000,  0.0000,  0.0000)
  50 Cu     7.267192    5.553580   10.607717    ( 0.0000,  0.0000,  0.0000)
  51 Cu     9.001360    3.765873   10.065893    ( 0.0000,  0.0000,  0.0000)
  52 Cu    11.399229    3.760689   11.112319    ( 0.0000,  0.0000,  0.0000)
  53 Cu     9.636177    5.551871   11.747671    ( 0.0000,  0.0000,  0.0000)
  54 Cu     3.797437    5.550321   11.725094    ( 0.0000,  0.0000,  0.0000)
  55 Cu     5.548177    3.639858   11.110738    ( 0.0000,  0.0000,  0.0000)
  56 Cu     7.856887    3.703517   12.341535    ( 0.0000,  0.0000,  0.0000)
  57 Cu     6.090721    5.551459   12.908728    ( 0.0000,  0.0000,  0.0000)
  58 Cu     0.267287    5.551121   12.910556    ( 0.0000,  0.0000,  0.0000)
  59 Cu     2.005563    3.698225   12.343686    ( 0.0000,  0.0000,  0.0000)
  60 Cu     4.363840    3.698673   13.505451    ( 0.0000,  0.0000,  0.0000)
  61 Cu     2.617585    5.550412   14.088594    ( 0.0000,  0.0000,  0.0000)
  62 Cu     8.453274    5.551946   14.088550    ( 0.0000,  0.0000,  0.0000)
  63 Cu    10.216019    3.702958   13.506010    ( 0.0000,  0.0000,  0.0000)
  64 Cu     0.852557    3.698738   14.673953    ( 0.0000,  0.0000,  0.0000)
  65 Cu    10.801317    5.553115   15.259316    ( 0.0000,  0.0000,  0.0000)
  66 Cu     4.949771    5.549696   15.259798    ( 0.0000,  0.0000,  0.0000)
  67 Cu     6.705001    3.702405   14.675208    ( 0.0000,  0.0000,  0.0000)
  68 Cu     9.037927    3.702751   15.852071    ( 0.0000,  0.0000,  0.0000)
  69 Cu     7.285114    5.553553   16.438891    ( 0.0000,  0.0000,  0.0000)
  70 Cu     1.427865    5.548980   16.429946    ( 0.0000,  0.0000,  0.0000)
  71 Cu     3.190099    3.699080   15.858212    ( 0.0000,  0.0000,  0.0000)
  72 Cu     5.529585    3.703518   17.029013    ( 0.0000,  0.0000,  0.0000)
  73 Cu     3.767344    5.553431   17.600738    ( 0.0000,  0.0000,  0.0000)
  74 Cu     9.623112    5.549740   17.606879    ( 0.0000,  0.0000,  0.0000)
  75 Cu    11.375949    3.698952   17.020062    ( 0.0000,  0.0000,  0.0000)
  76 Cu     2.007666    3.702806   18.199196    ( 0.0000,  0.0000,  0.0000)
  77 Cu     0.252435    5.550076   18.783757    ( 0.0000,  0.0000,  0.0000)
  78 Cu     6.104873    5.553789   18.785010    ( 0.0000,  0.0000,  0.0000)
  79 Cu     7.859723    3.699385   18.199605    ( 0.0000,  0.0000,  0.0000)
  80 Cu    10.207762    3.700556   19.370440    ( 0.0000,  0.0000,  0.0000)
  81 Cu     8.444931    5.549546   19.952984    ( 0.0000,  0.0000,  0.0000)
  82 Cu     2.593528    5.553823   19.953544    ( 0.0000,  0.0000,  0.0000)
  83 Cu     4.339749    3.702086   19.370408    ( 0.0000,  0.0000,  0.0000)
  84 Cu     6.690008    3.701378   20.548451    ( 0.0000,  0.0000,  0.0000)
  85 Cu     4.951779    5.554291   21.115353    ( 0.0000,  0.0000,  0.0000)
  86 Cu    10.804037    5.548962   21.117522    ( 0.0000,  0.0000,  0.0000)
  87 Cu     0.866586    3.701040   20.550323    ( 0.0000,  0.0000,  0.0000)
  88 Cu     3.159735    3.702170   21.733978    ( 0.0000,  0.0000,  0.0000)
  89 Cu     1.409005    5.612697   22.348368    ( 0.0000,  0.0000,  0.0000)
  90 Cu     7.261545    5.491754   22.346786    ( 0.0000,  0.0000,  0.0000)
  91 Cu     9.024733    3.700633   21.711316    ( 0.0000,  0.0000,  0.0000)
  92 Cu    11.393652    3.698926   22.851340    ( 0.0000,  0.0000,  0.0000)
  93 Cu     9.659260    5.486555   23.393123    ( 0.0000,  0.0000,  0.0000)
  94 Cu     3.806491    5.616641   23.392404    ( 0.0000,  0.0000,  0.0000)
  95 Cu     5.478022    3.703294   22.866547    ( 0.0000,  0.0000,  0.0000)
  96 Cl     2.002598    3.701476   24.473455    ( 0.0000,  0.0000,  0.0000)
  97 Cl     7.854393    0.000476   24.473455    ( 0.0000,  0.0000,  0.0000)
  98 Cl     4.954605    5.551025    8.985583    ( 0.0000,  0.0000,  0.0000)
  99 Cl    -0.897190    1.850025    8.985583    ( 0.0000,  0.0000,  0.0000)

Unit cell:
           periodic     x           y           z      points  spacing
  1. axis:    yes   11.703590    0.000000    0.000000    70     0.1672
  2. axis:    yes    0.000000    7.402000    0.000000    42     0.1762
  3. axis:    no     0.000000    0.000000   33.459128   192     0.1743

  Lengths:  11.703590   7.402000  33.459128
  Angles:   90.000000  90.000000  90.000000

Effective grid spacing dv^(1/3) = 0.1725

     iter     time        total  log10-change:
                         energy  eigst   dens
iter:   1 09:33:49 -7510.117915
iter:   2 09:37:35 -7531.553555  -0.42  -1.12
iter:   3 09:41:22 -7465.739063  -0.61  -1.12
iter:   4 09:45:10 -7467.883511  -1.12  -1.27
iter:   5 09:48:58 -7607.522838  -1.12  -1.35
iter:   6 09:52:46 -7443.931301  -1.51  -1.18
iter:   7 09:56:33 -7429.957784  -2.26  -1.61
iter:   8 10:00:20 -7416.859130  -1.57  -1.66
iter:   9 10:04:08 -7417.614545  -2.73  -1.74
iter:  10 10:07:56 -7425.031476  -1.78  -1.80
iter:  11 10:11:45 -7422.130684  -2.03  -1.81
iter:  12 10:15:34 -7418.527642  -1.75  -1.84
iter:  13 10:19:25 -7416.379474  -2.68  -2.29
iter:  14 10:23:13 -7415.087657  -2.69  -2.32
iter:  15 10:27:02 -7414.829959  -2.61  -2.41
iter:  16 10:30:54 -7414.732469c -3.57  -2.49
iter:  17 10:34:43 -7414.872944c -3.39  -2.57
iter:  18 10:38:30 -7414.699629c -3.26  -2.55
iter:  19 10:42:18 -7414.672223c -3.92  -2.77
iter:  20 10:46:05 -7414.668888c -3.74  -2.85
iter:  21 10:49:52 -7414.685144c -3.82  -2.98
iter:  22 10:53:39 -7414.649248c -4.14  -3.19
iter:  23 10:57:25 -7414.638740c -4.13  -3.31
iter:  24 11:01:11 -7414.637319c -5.74  -3.53
iter:  25 11:04:59 -7414.636883c -5.37  -3.64
iter:  26 11:08:46 -7414.636513c -5.47  -3.72
iter:  27 11:12:33 -7414.636270c -5.73  -3.84
iter:  28 11:16:20 -7414.636213c -6.83  -4.06c
iter:  29 11:20:08 -7414.636315c -6.56  -4.16c
iter:  30 11:23:58 -7414.636225c -5.91  -4.21c
iter:  31 11:27:50 -7414.636203c -7.51c -4.47c

Converged after 31 iterations.

Dipole moment: (25.655992, -0.016874, -0.000679) |e|*Ang

Energy contributions relative to reference atoms: (reference = -4372279.174330)

Kinetic:       +710.409527
Potential:     -787.901751
External:        +0.000000
XC:            -7335.123491
Entropy (-ST):   -0.940717
Local:           -1.550129
--------------------------
Free energy:   -7415.106562
Extrapolated:  -7414.636203

Showing only first 2 kpts
 Kpt  Band  Eigenvalues  Occupancy
  0   540      0.39081    0.39051
  0   541      0.39781    0.36898
  0   542      0.41724    0.31405
  0   543      0.44588    0.24544

  1   540     -0.05075    1.90509
  1   541      0.04544    1.76935
  1   542      0.09188    1.65646
  1   543      0.12084    1.56610


Fermi level: 0.24919

No gap

Forces in eV/Ang:
  0 Cu    0.07572   -0.16720   -0.02580
  1 Cu   -0.01567   -0.00909   -0.07122
  2 Cu   -0.12628    0.00277    0.16336
  3 Cu    0.07547    0.16978   -0.02629
  4 Cu    0.03297    0.02632    0.11799
  5 Cu   -0.01933    0.00512    0.13472
  6 Cu   -0.02015   -0.00332   -0.09247
  7 Cu    0.02919   -0.01679    0.11705
  8 Cu    0.02539   -0.00274   -0.15356
  9 Cu   -0.09599   -0.00052   -0.03584
 10 Cu    0.00959   -0.00307    0.04354
 11 Cu    0.03172    0.00218   -0.13761
 12 Cu   -0.00646   -0.01366   -0.09319
 13 Cu   -0.01216    0.00355    0.11126
 14 Cu   -0.03790   -0.00154    0.02332
 15 Cu   -0.00258    0.01352   -0.10131
 16 Cu    0.01417   -0.01067   -0.00540
 17 Cu   -0.00763    0.00466    0.06121
 18 Cu   -0.02806   -0.00475    0.00098
 19 Cu    0.03154    0.01528   -0.00220
 20 Cu    0.02138    0.00440   -0.05811
 21 Cu    0.01139    0.01581    0.06318
 22 Cu   -0.02312   -0.01336    0.03088
 23 Cu    0.01903   -0.00635   -0.03754
 24 Cu    0.02329    0.01348   -0.02932
 25 Cu   -0.01853    0.00629    0.03905
 26 Cu   -0.02090   -0.00434    0.05978
 27 Cu   -0.01121   -0.01593   -0.06182
 28 Cu    0.02867    0.00478    0.00024
 29 Cu   -0.03167   -0.01527    0.00187
 30 Cu   -0.01438    0.01065    0.00506
 31 Cu    0.00810   -0.00469   -0.06055
 32 Cu    0.03808    0.00151   -0.02499
 33 Cu    0.00382   -0.01322    0.10024
 34 Cu    0.00773    0.01337    0.09201
 35 Cu    0.01206   -0.00350   -0.11207
 36 Cu   -0.01032    0.00308   -0.04592
 37 Cu   -0.03278   -0.00300    0.13748
 38 Cu   -0.02643    0.00357    0.15357
 39 Cu    0.09669    0.00050    0.03426
 40 Cu    0.02198    0.00332    0.09482
 41 Cu   -0.02733    0.01570   -0.11683
 42 Cu   -0.03111   -0.02527   -0.11782
 43 Cu    0.02147   -0.00516   -0.13335
 44 Cu    0.12126   -0.00277   -0.16103
 45 Cu   -0.07577   -0.16763    0.03186
 46 Cu   -0.07600    0.16513    0.03145
 47 Cu    0.01062    0.00911    0.07437
 48 Cu    0.07547    0.16978   -0.02629
 49 Cu   -0.12628    0.00277    0.16336
 50 Cu   -0.01567   -0.00909   -0.07122
 51 Cu    0.07572   -0.16720   -0.02580
 52 Cu    0.02919   -0.01679    0.11705
 53 Cu   -0.02015   -0.00332   -0.09247
 54 Cu   -0.01933    0.00512    0.13472
 55 Cu    0.03297    0.02632    0.11799
 56 Cu    0.03172    0.00218   -0.13761
 57 Cu    0.00960   -0.00307    0.04354
 58 Cu   -0.09599   -0.00052   -0.03584
 59 Cu    0.02539   -0.00274   -0.15356
 60 Cu   -0.00257    0.01352   -0.10131
 61 Cu   -0.03790   -0.00154    0.02332
 62 Cu   -0.01216    0.00355    0.11125
 63 Cu   -0.00647   -0.01366   -0.09320
 64 Cu    0.03155    0.01528   -0.00220
 65 Cu   -0.02806   -0.00475    0.00098
 66 Cu   -0.00762    0.00466    0.06121
 67 Cu    0.01417   -0.01067   -0.00540
 68 Cu    0.01903   -0.00635   -0.03754
 69 Cu   -0.02312   -0.01336    0.03087
 70 Cu    0.01139    0.01581    0.06318
 71 Cu    0.02137    0.00440   -0.05811
 72 Cu   -0.01121   -0.01593   -0.06182
 73 Cu   -0.02090   -0.00434    0.05978
 74 Cu   -0.01853    0.00629    0.03905
 75 Cu    0.02329    0.01348   -0.02932
 76 Cu    0.00810   -0.00470   -0.06055
 77 Cu   -0.01438    0.01065    0.00506
 78 Cu   -0.03168   -0.01527    0.00187
 79 Cu    0.02867    0.00478    0.00024
 80 Cu    0.01206   -0.00350   -0.11206
 81 Cu    0.00773    0.01336    0.09201
 82 Cu    0.00382   -0.01323    0.10024
 83 Cu    0.03808    0.00151   -0.02498
 84 Cu    0.09670    0.00050    0.03426
 85 Cu   -0.02643    0.00357    0.15357
 86 Cu   -0.03278   -0.00300    0.13748
 87 Cu   -0.01032    0.00308   -0.04592
 88 Cu    0.02147   -0.00516   -0.13335
 89 Cu   -0.03110   -0.02527   -0.11781
 90 Cu   -0.02733    0.01570   -0.11683
 91 Cu    0.02198    0.00332    0.09481
 92 Cu    0.01062    0.00911    0.07437
 93 Cu   -0.07600    0.16513    0.03145
 94 Cu   -0.07577   -0.16763    0.03186
 95 Cu    0.12126   -0.00277   -0.16103
 96 Cl    0.05499    0.00796   -0.09662
 97 Cl    0.05499    0.00796   -0.09662
 98 Cl   -0.04937   -0.00793    0.09981
 99 Cl   -0.04937   -0.00793    0.09981

System changes: positions 

Initializing position-dependent things.

Density initialized from wave functions
      .----------------------------.  
     /|                            |  
    / |                            |  
   /  |                            |  
  /   |                            |  
 *    |                            |  
 |    |                            |  
 |    |                            |  
 |    |                            |  
 |    |                            |  
 |    |                            |  
 |    |                            |  
 |    |                            |  
 |    |             Cu             |  
 |    | Cl    Cu             Cu    |  
 |    | Cu       Cu    Cu       Cu |  
 |    |     Cu   Cu Cl    Cu    Cu |  
 |    Cu   Cu    Cu Cu    Cu       |  
 |    Cu   Cu       Cu    Cu Cu    |  
 |   Cu    Cu  Cu   Cu Cu    Cu    |  
 |    |  Cu   Cu    Cu Cu    Cu    |  
 | Cu | Cu    Cu  Cu   Cu    Cu    |  
 | Cu | Cu       Cu    Cu CuCu     |  
 |    |     Cu   Cu    Cu Cu    Cu |  
 |    |    Cu    Cu Cu    Cu   CCu |  
 |    Cu   Cu       Cu    Cu Cu    |  
 |   CCu       Cu   Cu   Cu  Cu    |  
 |    |  Cu   Cu       Cu    Cu   Cu  
 | Cu | Cu    Cu       Cu    Cu    |  
 | Cu | Cu  Cu   Cu    Cu   Cu     |  
 |    |     Cu   Cu       Cu    Cu |  
 |    Cu   Cu    Cl       Cu       |  
 |    Cu       Cu   Cu             |  
 |    |                            |  
 |    |  Cu                  Cl    |  
 |    |                            |  
 |    |                            |  
 |    |                            |  
 |    |                            |  
 |    |                            |  
 |    |                            |  
 |    .----------------------------.  
 |   /                            /   
 |  /                            /    
 | /                            /     
 |/                            /      
 *----------------------------*       

Positions:
   0 Cu     3.157137    0.048153   10.063313    ( 0.0000,  0.0000,  0.0000)
   1 Cu     1.413830    1.851671   10.600595    ( 0.0000,  0.0000,  0.0000)
   2 Cu     7.318154    1.848471   10.608842    ( 0.0000,  0.0000,  0.0000)
   3 Cu     9.009894   -0.048104   10.063967    ( 0.0000,  0.0000,  0.0000)
   4 Cu    11.403269   -0.058510   11.122537    ( 0.0000,  0.0000,  0.0000)
   5 Cu     9.647299    1.849833   11.738565    ( 0.0000,  0.0000,  0.0000)
   6 Cu     3.782367    1.850539   11.738424    ( 0.0000,  0.0000,  0.0000)
   7 Cu     5.550353    0.058010   11.124024    ( 0.0000,  0.0000,  0.0000)
   8 Cu     7.859897   -0.003049   12.328330    ( 0.0000,  0.0000,  0.0000)
   9 Cu     6.109483    1.850069   12.906972    ( 0.0000,  0.0000,  0.0000)
  10 Cu     0.239885    1.850152   12.913082    ( 0.0000,  0.0000,  0.0000)
  11 Cu     2.008264    0.002735   12.327774    ( 0.0000,  0.0000,  0.0000)
  12 Cu     4.363578    0.000592   13.496691    ( 0.0000,  0.0000,  0.0000)
  13 Cu     2.600263    1.851301   14.099676    ( 0.0000,  0.0000,  0.0000)
  14 Cu     8.465590    1.849258   14.090926    ( 0.0000,  0.0000,  0.0000)
  15 Cu    10.215377   -0.000975   13.495320    ( 0.0000,  0.0000,  0.0000)
  16 Cu     0.854623    0.000338   14.674668    ( 0.0000,  0.0000,  0.0000)
  17 Cu    10.800803    1.849162   15.265919    ( 0.0000,  0.0000,  0.0000)
  18 Cu     4.946716    1.851640   15.259414    ( 0.0000,  0.0000,  0.0000)
  19 Cu     6.707507   -0.000734   14.673733    ( 0.0000,  0.0000,  0.0000)
  20 Cu     9.044032   -0.001480   15.852401    ( 0.0000,  0.0000,  0.0000)
  21 Cu     7.280799    1.849561   16.436264    ( 0.0000,  0.0000,  0.0000)
  22 Cu     1.431007    1.851217   16.441979    ( 0.0000,  0.0000,  0.0000)
  23 Cu     3.188035    0.001116   15.848317    ( 0.0000,  0.0000,  0.0000)
  24 Cu     5.526483   -0.000700   17.017130    ( 0.0000,  0.0000,  0.0000)
  25 Cu     3.769465    1.849369   17.610784    ( 0.0000,  0.0000,  0.0000)
  26 Cu     9.617049    1.851997   17.606716    ( 0.0000,  0.0000,  0.0000)
  27 Cu    11.380259    0.000925   17.022831    ( 0.0000,  0.0000,  0.0000)
  28 Cu     2.010795   -0.001137   18.199629    ( 0.0000,  0.0000,  0.0000)
  29 Cu     0.249910    1.851262   18.785197    ( 0.0000,  0.0000,  0.0000)
  30 Cu     6.102792    1.850141   18.784263    ( 0.0000,  0.0000,  0.0000)
  31 Cu     7.860271    0.001337   18.193141    ( 0.0000,  0.0000,  0.0000)
  32 Cu    10.195352    0.001237   19.367910    ( 0.0000,  0.0000,  0.0000)
  33 Cu     8.445705    1.851501   19.963568    ( 0.0000,  0.0000,  0.0000)
  34 Cu     2.593909    1.849883   19.962185    ( 0.0000,  0.0000,  0.0000)
  35 Cu     4.357173   -0.000794   19.359233    ( 0.0000,  0.0000,  0.0000)
  36 Cu     6.717349    0.000348   20.545731    ( 0.0000,  0.0000,  0.0000)
  37 Cu     4.948964    1.847662   21.131270    ( 0.0000,  0.0000,  0.0000)
  38 Cu    10.800931    1.853648   21.130710    ( 0.0000,  0.0000,  0.0000)
  39 Cu     0.847882    0.000428   20.551877    ( 0.0000,  0.0000,  0.0000)
  40 Cu     3.175136   -0.000035   21.720797    ( 0.0000,  0.0000,  0.0000)
  41 Cu     1.407017    1.792324   22.335103    ( 0.0000,  0.0000,  0.0000)
  42 Cu     7.257689    1.909170   22.336587    ( 0.0000,  0.0000,  0.0000)
  43 Cu     9.013677    0.000654   21.720643    ( 0.0000,  0.0000,  0.0000)
  44 Cu    11.341943    0.002017   22.850444    ( 0.0000,  0.0000,  0.0000)
  45 Cu     9.650709    1.898878   23.395590    ( 0.0000,  0.0000,  0.0000)
  46 Cu     3.799865    1.802068   23.396268    ( 0.0000,  0.0000,  0.0000)
  47 Cu     5.542919   -0.001163   22.858777    ( 0.0000,  0.0000,  0.0000)
  48 Cu     3.158099    3.652896   10.063967    ( 0.0000,  0.0000,  0.0000)
  49 Cu     1.466359    5.549471   10.608842    ( 0.0000,  0.0000,  0.0000)
  50 Cu     7.265625    5.552671   10.600595    ( 0.0000,  0.0000,  0.0000)
  51 Cu     9.008932    3.749153   10.063313    ( 0.0000,  0.0000,  0.0000)
  52 Cu    11.402148    3.759010   11.124024    ( 0.0000,  0.0000,  0.0000)
  53 Cu     9.634162    5.551539   11.738424    ( 0.0000,  0.0000,  0.0000)
  54 Cu     3.795504    5.550833   11.738566    ( 0.0000,  0.0000,  0.0000)
  55 Cu     5.551474    3.642490   11.122537    ( 0.0000,  0.0000,  0.0000)
  56 Cu     7.860059    3.703735   12.327774    ( 0.0000,  0.0000,  0.0000)
  57 Cu     6.091681    5.551152   12.913082    ( 0.0000,  0.0000,  0.0000)
  58 Cu     0.257688    5.551069   12.906972    ( 0.0000,  0.0000,  0.0000)
  59 Cu     2.008102    3.697951   12.328330    ( 0.0000,  0.0000,  0.0000)
  60 Cu     4.363583    3.700025   13.495320    ( 0.0000,  0.0000,  0.0000)
  61 Cu     2.613795    5.550258   14.090926    ( 0.0000,  0.0000,  0.0000)
  62 Cu     8.452058    5.552301   14.099675    ( 0.0000,  0.0000,  0.0000)
  63 Cu    10.215372    3.701592   13.496690    ( 0.0000,  0.0000,  0.0000)
  64 Cu     0.855712    3.700266   14.673733    ( 0.0000,  0.0000,  0.0000)
  65 Cu    10.798511    5.552640   15.259414    ( 0.0000,  0.0000,  0.0000)
  66 Cu     4.949009    5.550162   15.265919    ( 0.0000,  0.0000,  0.0000)
  67 Cu     6.706418    3.701338   14.674668    ( 0.0000,  0.0000,  0.0000)
  68 Cu     9.039830    3.702116   15.848317    ( 0.0000,  0.0000,  0.0000)
  69 Cu     7.282802    5.552217   16.441978    ( 0.0000,  0.0000,  0.0000)
  70 Cu     1.429004    5.550561   16.436264    ( 0.0000,  0.0000,  0.0000)
  71 Cu     3.192236    3.699520   15.852401    ( 0.0000,  0.0000,  0.0000)
  72 Cu     5.528464    3.701925   17.022831    ( 0.0000,  0.0000,  0.0000)
  73 Cu     3.765254    5.552997   17.606716    ( 0.0000,  0.0000,  0.0000)
  74 Cu     9.621259    5.550369   17.610784    ( 0.0000,  0.0000,  0.0000)
  75 Cu    11.378278    3.700300   17.017130    ( 0.0000,  0.0000,  0.0000)
  76 Cu     2.008476    3.702336   18.193141    ( 0.0000,  0.0000,  0.0000)
  77 Cu     0.250997    5.551141   18.784263    ( 0.0000,  0.0000,  0.0000)
  78 Cu     6.101705    5.552262   18.785197    ( 0.0000,  0.0000,  0.0000)
  79 Cu     7.862590    3.699863   18.199629    ( 0.0000,  0.0000,  0.0000)
  80 Cu    10.208968    3.700206   19.359234    ( 0.0000,  0.0000,  0.0000)
  81 Cu     8.445704    5.550882   19.962185    ( 0.0000,  0.0000,  0.0000)
  82 Cu     2.593910    5.552500   19.963568    ( 0.0000,  0.0000,  0.0000)
  83 Cu     4.343557    3.702237   19.367910    ( 0.0000,  0.0000,  0.0000)
  84 Cu     6.699678    3.701428   20.551877    ( 0.0000,  0.0000,  0.0000)
  85 Cu     4.949136    5.554648   21.130710    ( 0.0000,  0.0000,  0.0000)
  86 Cu    10.800759    5.548662   21.131270    ( 0.0000,  0.0000,  0.0000)
  87 Cu     0.865554    3.701348   20.545731    ( 0.0000,  0.0000,  0.0000)
  88 Cu     3.161882    3.701654   21.720643    ( 0.0000,  0.0000,  0.0000)
  89 Cu     1.405895    5.610170   22.336587    ( 0.0000,  0.0000,  0.0000)
  90 Cu     7.258812    5.493324   22.335103    ( 0.0000,  0.0000,  0.0000)
  91 Cu     9.026931    3.700965   21.720797    ( 0.0000,  0.0000,  0.0000)
  92 Cu    11.394714    3.699837   22.858777    ( 0.0000,  0.0000,  0.0000)
  93 Cu     9.651660    5.503068   23.396268    ( 0.0000,  0.0000,  0.0000)
  94 Cu     3.798914    5.599878   23.395590    ( 0.0000,  0.0000,  0.0000)
  95 Cu     5.490148    3.703017   22.850444    ( 0.0000,  0.0000,  0.0000)
  96 Cl     2.008097    3.702272   24.463793    ( 0.0000,  0.0000,  0.0000)
  97 Cl     7.859892    0.001272   24.463793    ( 0.0000,  0.0000,  0.0000)
  98 Cl     4.949668    5.550232    8.995564    ( 0.0000,  0.0000,  0.0000)
  99 Cl    -0.902127    1.849232    8.995564    ( 0.0000,  0.0000,  0.0000)

Unit cell:
           periodic     x           y           z      points  spacing
  1. axis:    yes   11.703590    0.000000    0.000000    70     0.1672
  2. axis:    yes    0.000000    7.402000    0.000000    42     0.1762
  3. axis:    no     0.000000    0.000000   33.459128   192     0.1743

  Lengths:  11.703590   7.402000  33.459128
  Angles:   90.000000  90.000000  90.000000

Effective grid spacing dv^(1/3) = 0.1725

     iter     time        total  log10-change:
                         energy  eigst   dens
iter:   1 11:34:01 -7415.052890  -2.71
iter:   2 11:37:52 -7414.778831  -3.37  -2.59
iter:   3 11:41:42 -7414.755747c -4.57  -3.02
iter:   4 11:45:32 -7414.750552c -4.86  -3.12
iter:   5 11:49:21 -7414.741771c -3.92  -3.16
iter:   6 11:53:10 -7414.736118c -5.29  -3.61
iter:   7 11:56:59 -7414.736177c -4.63  -3.70
iter:   8 12:00:49 -7414.735876c -6.22  -3.94
iter:   9 12:04:38 -7414.735036c -5.21  -4.00c
iter:  10 12:08:28 -7414.735327c -6.18  -4.02c
iter:  11 12:12:17 -7414.734636c -6.55  -3.90
iter:  12 12:16:06 -7414.734606c -6.89  -4.39c
iter:  13 12:19:56 -7414.734585c -7.13  -4.48c
iter:  14 12:23:42 -7414.734587c -7.45c -4.55c

Converged after 14 iterations.

Dipole moment: (25.794337, -0.146038, 0.000137) |e|*Ang

Energy contributions relative to reference atoms: (reference = -4372279.174330)

Kinetic:       +709.062526
Potential:     -786.506787
External:        +0.000000
XC:            -7335.382233
Entropy (-ST):   -0.937473
Local:           -1.439358
--------------------------
Free energy:   -7415.203323
Extrapolated:  -7414.734587

Showing only first 2 kpts
 Kpt  Band  Eigenvalues  Occupancy
  0   540      0.40175    0.39923
  0   541      0.41062    0.37165
  0   542      0.43458    0.30452
  0   543      0.45872    0.24727

  1   540     -0.03814    1.90606
  1   541      0.05370    1.78020
  1   542      0.10517    1.65759
  1   543      0.13205    1.57444


Fermi level: 0.26288

No gap

Forces in eV/Ang:
  0 Cu    0.06461   -0.15152   -0.02804
  1 Cu    0.02344   -0.00481   -0.07543
  2 Cu   -0.07895    0.00367    0.08381
  3 Cu    0.06439    0.15191   -0.02783
  4 Cu    0.00185    0.04201    0.07986
  5 Cu   -0.01808    0.00381    0.09594
  6 Cu   -0.03731    0.00001   -0.09611
  7 Cu    0.00083   -0.03767    0.07863
  8 Cu    0.01661   -0.02620   -0.05511
  9 Cu   -0.04890   -0.00029    0.02912
 10 Cu    0.03803    0.00059    0.04132
 11 Cu    0.01995    0.02425   -0.04607
 12 Cu   -0.01731   -0.00077   -0.02440
 13 Cu   -0.00306    0.00148    0.02452
 14 Cu   -0.04298   -0.00016    0.00619
 15 Cu   -0.01791    0.00019   -0.03339
 16 Cu    0.00469   -0.01886   -0.02390
 17 Cu   -0.00933    0.00680    0.02090
 18 Cu   -0.00359   -0.00684   -0.01102
 19 Cu    0.01249    0.02121   -0.02026
 20 Cu    0.01606    0.01104   -0.03083
 21 Cu    0.00824    0.01346    0.03006
 22 Cu   -0.01131   -0.01232    0.02584
 23 Cu    0.01848   -0.01115   -0.01508
 24 Cu    0.01177    0.01220   -0.02707
 25 Cu   -0.01821    0.01120    0.01385
 26 Cu   -0.01579   -0.01106    0.02955
 27 Cu   -0.00759   -0.01335   -0.03109
 28 Cu    0.00366    0.00685    0.01047
 29 Cu   -0.01209   -0.02154    0.02067
 30 Cu   -0.00422    0.01917    0.02436
 31 Cu    0.00961   -0.00678   -0.02152
 32 Cu    0.04379    0.00017   -0.00469
 33 Cu    0.01752   -0.00038    0.03474
 34 Cu    0.01694    0.00096    0.02586
 35 Cu    0.00334   -0.00149   -0.02377
 36 Cu   -0.03726   -0.00059   -0.03870
 37 Cu   -0.01890   -0.02332    0.04702
 38 Cu   -0.01558    0.02522    0.05611
 39 Cu    0.04893    0.00028   -0.02715
 40 Cu    0.03607   -0.00002    0.09454
 41 Cu   -0.00272    0.03760   -0.07962
 42 Cu   -0.00371   -0.04193   -0.08086
 43 Cu    0.01646   -0.00378   -0.09724
 44 Cu    0.08216   -0.00367   -0.08561
 45 Cu   -0.06460   -0.15244    0.02618
 46 Cu   -0.06482    0.15202    0.02633
 47 Cu   -0.02005    0.00478    0.07345
 48 Cu    0.06439    0.15191   -0.02783
 49 Cu   -0.07895    0.00367    0.08381
 50 Cu    0.02344   -0.00481   -0.07543
 51 Cu    0.06461   -0.15152   -0.02804
 52 Cu    0.00083   -0.03767    0.07863
 53 Cu   -0.03731    0.00001   -0.09611
 54 Cu   -0.01808    0.00381    0.09594
 55 Cu    0.00185    0.04201    0.07986
 56 Cu    0.01995    0.02425   -0.04607
 57 Cu    0.03803    0.00059    0.04132
 58 Cu   -0.04890   -0.00029    0.02912
 59 Cu    0.01661   -0.02620   -0.05511
 60 Cu   -0.01791    0.00019   -0.03339
 61 Cu   -0.04298   -0.00016    0.00619
 62 Cu   -0.00306    0.00148    0.02452
 63 Cu   -0.01731   -0.00077   -0.02440
 64 Cu    0.01249    0.02121   -0.02026
 65 Cu   -0.00359   -0.00684   -0.01102
 66 Cu   -0.00933    0.00681    0.02089
 67 Cu    0.00469   -0.01887   -0.02390
 68 Cu    0.01848   -0.01115   -0.01508
 69 Cu   -0.01131   -0.01232    0.02584
 70 Cu    0.00824    0.01346    0.03006
 71 Cu    0.01606    0.01104   -0.03083
 72 Cu   -0.00759   -0.01335   -0.03109
 73 Cu   -0.01579   -0.01106    0.02955
 74 Cu   -0.01821    0.01120    0.01385
 75 Cu    0.01177    0.01220   -0.02707
 76 Cu    0.00961   -0.00678   -0.02152
 77 Cu   -0.00422    0.01917    0.02436
 78 Cu   -0.01209   -0.02154    0.02067
 79 Cu    0.00366    0.00685    0.01047
 80 Cu    0.00334   -0.00150   -0.02377
 81 Cu    0.01694    0.00096    0.02586
 82 Cu    0.01752   -0.00038    0.03474
 83 Cu    0.04379    0.00017   -0.00469
 84 Cu    0.04893    0.00029   -0.02715
 85 Cu   -0.01558    0.02522    0.05611
 86 Cu   -0.01890   -0.02332    0.04702
 87 Cu   -0.03726   -0.00059   -0.03870
 88 Cu    0.01647   -0.00378   -0.09724
 89 Cu   -0.00371   -0.04193   -0.08086
 90 Cu   -0.00272    0.03760   -0.07962
 91 Cu    0.03607   -0.00002    0.09454
 92 Cu   -0.02005    0.00478    0.07345
 93 Cu   -0.06482    0.15202    0.02633
 94 Cu   -0.06460   -0.15244    0.02618
 95 Cu    0.08216   -0.00367   -0.08561
 96 Cl    0.06199    0.00762   -0.08471
 97 Cl    0.06199    0.00762   -0.08471
 98 Cl   -0.06296   -0.00760    0.08529
 99 Cl   -0.06296   -0.00760    0.08529

System changes: positions 

Initializing position-dependent things.

Density initialized from wave functions
      .----------------------------.  
     /|                            |  
    / |                            |  
   /  |                            |  
  /   |                            |  
 *    |                            |  
 |    |                            |  
 |    |                            |  
 |    |                            |  
 |    |                            |  
 |    |                            |  
 |    |                            |  
 |    |                            |  
 |    |                            |  
 |    |  Cl   Cu            CCu    |  
 |    | Cu             Cu       Cu |  
 |    |     Cu   Cu  Cl   Cu   Cu  |  
 |    Cu   Cu    Cu Cu    Cu       |  
 |    Cu   Cu  Cu   Cu    Cu Cu    |  
 |   Cu  CuCu Cu    Cu       Cu    |  
 |    |  Cu   Cu       Cu    Cu   Cu  
 | Cu | Cu    Cu  Cu   Cu    Cu    |  
 | Cu | Cu       Cu    Cu CuCu     |  
 |    | Cu  Cu   Cu       Cu    Cu |  
 |    |    Cu    Cu Cu    Cu   Cu  |  
 |    Cu   Cu  Cu   Cu    Cu       |  
 |   CCu      Cu    Cu   Cu  Cu    |  
 |    |  Cu   Cu       Cu    Cu   Cu  
 |    | Cu    Cu  Cu   Cu    Cu    |  
 | Cu | Cu       Cu    Cu CuCu     |  
 |    |     Cu   Cu       Cu    Cu |  
 |    Cu   Cu    Cl       Cu       |  
 |    Cu       Cu   Cu             |  
 |    |                            |  
 |    |  Cu                  Cl    |  
 |    |                            |  
 |    |                            |  
 |    |                            |  
 |    |                            |  
 |    |                            |  
 |    |                            |  
 |    .----------------------------.  
 |   /                            /   
 |  /                            /    
 | /                            /     
 |/                            /      
 *----------------------------*       

Positions:
   0 Cu     3.170408    0.018849   10.058792    ( 0.0000,  0.0000,  0.0000)
   1 Cu     1.411084    1.850078   10.588111    ( 0.0000,  0.0000,  0.0000)
   2 Cu     7.296022    1.848956   10.637474    ( 0.0000,  0.0000,  0.0000)
   3 Cu     9.023121   -0.018348   10.059358    ( 0.0000,  0.0000,  0.0000)
   4 Cu    11.409046   -0.053896   11.143217    ( 0.0000,  0.0000,  0.0000)
   5 Cu     9.643910    1.850730   11.762178    ( 0.0000,  0.0000,  0.0000)
   6 Cu     3.778835    1.849957   11.722216    ( 0.0000,  0.0000,  0.0000)
   7 Cu     5.555469    0.055068   11.144540    ( 0.0000,  0.0000,  0.0000)
   8 Cu     7.864347   -0.003529   12.301416    ( 0.0000,  0.0000,  0.0000)
   9 Cu     6.092660    1.849977   12.900691    ( 0.0000,  0.0000,  0.0000)
  10 Cu     0.241567    1.849613   12.920714    ( 0.0000,  0.0000,  0.0000)
  11 Cu     2.013824    0.003117   12.303655    ( 0.0000,  0.0000,  0.0000)
  12 Cu     4.362445   -0.001803   13.480357    ( 0.0000,  0.0000,  0.0000)
  13 Cu     2.598132    1.851923   14.119175    ( 0.0000,  0.0000,  0.0000)
  14 Cu     8.458948    1.848988   14.095012    ( 0.0000,  0.0000,  0.0000)
  15 Cu    10.214926    0.001395   13.477565    ( 0.0000,  0.0000,  0.0000)
  16 Cu     0.857107   -0.001532   14.673722    ( 0.0000,  0.0000,  0.0000)
  17 Cu    10.799467    1.849978   15.276647    ( 0.0000,  0.0000,  0.0000)
  18 Cu     4.941797    1.850808   15.259585    ( 0.0000,  0.0000,  0.0000)
  19 Cu     6.713035    0.001943   14.673348    ( 0.0000,  0.0000,  0.0000)
  20 Cu     9.047778   -0.000708   15.842216    ( 0.0000,  0.0000,  0.0000)
  21 Cu     7.282794    1.852332   16.447338    ( 0.0000,  0.0000,  0.0000)
  22 Cu     1.426955    1.848874   16.447390    ( 0.0000,  0.0000,  0.0000)
  23 Cu     3.191371    0.000004   15.841736    ( 0.0000,  0.0000,  0.0000)
  24 Cu     5.530564    0.001664   17.011991    ( 0.0000,  0.0000,  0.0000)
  25 Cu     3.766216    1.850472   17.617628    ( 0.0000,  0.0000,  0.0000)
  26 Cu     9.613386    1.851237   17.617192    ( 0.0000,  0.0000,  0.0000)
  27 Cu    11.378294   -0.001867   17.011997    ( 0.0000,  0.0000,  0.0000)
  28 Cu     2.015819   -0.000300   18.199671    ( 0.0000,  0.0000,  0.0000)
  29 Cu     0.244358    1.848586   18.785524    ( 0.0000,  0.0000,  0.0000)
  30 Cu     6.100272    1.852007   18.785150    ( 0.0000,  0.0000,  0.0000)
  31 Cu     7.861691    0.000514   18.182529    ( 0.0000,  0.0000,  0.0000)
  32 Cu    10.202025    0.001502   19.363530    ( 0.0000,  0.0000,  0.0000)
  33 Cu     8.446374    1.849183   19.981136    ( 0.0000,  0.0000,  0.0000)
  34 Cu     2.595264    1.852225   19.978312    ( 0.0000,  0.0000,  0.0000)
  35 Cu     4.359286   -0.001409   19.339592    ( 0.0000,  0.0000,  0.0000)
  36 Cu     6.715540    0.000887   20.537683    ( 0.0000,  0.0000,  0.0000)
  37 Cu     4.943219    1.847137   21.155365    ( 0.0000,  0.0000,  0.0000)
  38 Cu    10.796300    1.854273   21.157626    ( 0.0000,  0.0000,  0.0000)
  39 Cu     0.864830    0.000516   20.557882    ( 0.0000,  0.0000,  0.0000)
  40 Cu     3.178990    0.000547   21.737415    ( 0.0000,  0.0000,  0.0000)
  41 Cu     1.402227    1.795076   22.314627    ( 0.0000,  0.0000,  0.0000)
  42 Cu     7.252237    1.904742   22.315938    ( 0.0000,  0.0000,  0.0000)
  43 Cu     9.017440   -0.000251   21.697272    ( 0.0000,  0.0000,  0.0000)
  44 Cu    11.363197    0.001531   22.822222    ( 0.0000,  0.0000,  0.0000)
  45 Cu     9.637429    1.869499   23.401174    ( 0.0000,  0.0000,  0.0000)
  46 Cu     3.786546    1.831009   23.401780    ( 0.0000,  0.0000,  0.0000)
  47 Cu     5.544780    0.000435   22.871812    ( 0.0000,  0.0000,  0.0000)
  48 Cu     3.171326    3.682652   10.059358    ( 0.0000,  0.0000,  0.0000)
  49 Cu     1.444227    5.549955   10.637474    ( 0.0000,  0.0000,  0.0000)
  50 Cu     7.262879    5.551078   10.588112    ( 0.0000,  0.0000,  0.0000)
  51 Cu     9.022203    3.719849   10.058792    ( 0.0000,  0.0000,  0.0000)
  52 Cu    11.407264    3.756068   11.144540    ( 0.0000,  0.0000,  0.0000)
  53 Cu     9.630630    5.550957   11.722216    ( 0.0000,  0.0000,  0.0000)
  54 Cu     3.792115    5.551730   11.762178    ( 0.0000,  0.0000,  0.0000)
  55 Cu     5.557251    3.647104   11.143217    ( 0.0000,  0.0000,  0.0000)
  56 Cu     7.865619    3.704117   12.303656    ( 0.0000,  0.0000,  0.0000)
  57 Cu     6.093362    5.550613   12.920714    ( 0.0000,  0.0000,  0.0000)
  58 Cu     0.240865    5.550977   12.900691    ( 0.0000,  0.0000,  0.0000)
  59 Cu     2.012552    3.697471   12.301416    ( 0.0000,  0.0000,  0.0000)
  60 Cu     4.363131    3.702395   13.477565    ( 0.0000,  0.0000,  0.0000)
  61 Cu     2.607152    5.549988   14.095013    ( 0.0000,  0.0000,  0.0000)
  62 Cu     8.449927    5.552923   14.119175    ( 0.0000,  0.0000,  0.0000)
  63 Cu    10.214239    3.699197   13.480356    ( 0.0000,  0.0000,  0.0000)
  64 Cu     0.861241    3.702943   14.673348    ( 0.0000,  0.0000,  0.0000)
  65 Cu    10.793592    5.551808   15.259585    ( 0.0000,  0.0000,  0.0000)
  66 Cu     4.947672    5.550978   15.276647    ( 0.0000,  0.0000,  0.0000)
  67 Cu     6.708902    3.699468   14.673722    ( 0.0000,  0.0000,  0.0000)
  68 Cu     9.043165    3.701003   15.841736    ( 0.0000,  0.0000,  0.0000)
  69 Cu     7.278750    5.549874   16.447389    ( 0.0000,  0.0000,  0.0000)
  70 Cu     1.430999    5.553332   16.447338    ( 0.0000,  0.0000,  0.0000)
  71 Cu     3.195983    3.700292   15.842216    ( 0.0000,  0.0000,  0.0000)
  72 Cu     5.526499    3.699134   17.011997    ( 0.0000,  0.0000,  0.0000)
  73 Cu     3.761591    5.552237   17.617192    ( 0.0000,  0.0000,  0.0000)
  74 Cu     9.618012    5.551472   17.617628    ( 0.0000,  0.0000,  0.0000)
  75 Cu    11.382359    3.702664   17.011991    ( 0.0000,  0.0000,  0.0000)
  76 Cu     2.009896    3.701513   18.182529    ( 0.0000,  0.0000,  0.0000)
  77 Cu     0.248477    5.553007   18.785150    ( 0.0000,  0.0000,  0.0000)
  78 Cu     6.096153    5.549587   18.785524    ( 0.0000,  0.0000,  0.0000)
  79 Cu     7.867614    3.700700   18.199671    ( 0.0000,  0.0000,  0.0000)
  80 Cu    10.211081    3.699591   19.339592    ( 0.0000,  0.0000,  0.0000)
  81 Cu     8.447059    5.553225   19.978312    ( 0.0000,  0.0000,  0.0000)
  82 Cu     2.594579    5.550183   19.981136    ( 0.0000,  0.0000,  0.0000)
  83 Cu     4.350230    3.702502   19.363531    ( 0.0000,  0.0000,  0.0000)
  84 Cu     6.716625    3.701515   20.557882    ( 0.0000,  0.0000,  0.0000)
  85 Cu     4.944505    5.555273   21.157626    ( 0.0000,  0.0000,  0.0000)
  86 Cu    10.795014    5.548136   21.155365    ( 0.0000,  0.0000,  0.0000)
  87 Cu     0.863745    3.701887   20.537683    ( 0.0000,  0.0000,  0.0000)
  88 Cu     3.165645    3.700749   21.697271    ( 0.0000,  0.0000,  0.0000)
  89 Cu     1.400443    5.605742   22.315937    ( 0.0000,  0.0000,  0.0000)
  90 Cu     7.254022    5.496076   22.314627    ( 0.0000,  0.0000,  0.0000)
  91 Cu     9.030784    3.701547   21.737415    ( 0.0000,  0.0000,  0.0000)
  92 Cu    11.396575    3.701435   22.871812    ( 0.0000,  0.0000,  0.0000)
  93 Cu     9.638340    5.532009   23.401781    ( 0.0000,  0.0000,  0.0000)
  94 Cu     3.785634    5.570499   23.401174    ( 0.0000,  0.0000,  0.0000)
  95 Cu     5.511402    3.702531   22.822222    ( 0.0000,  0.0000,  0.0000)
  96 Cl     2.017734    3.703666   24.446858    ( 0.0000,  0.0000,  0.0000)
  97 Cl     7.869529    0.002666   24.446858    ( 0.0000,  0.0000,  0.0000)
  98 Cl     4.941015    5.548842    9.013058    ( 0.0000,  0.0000,  0.0000)
  99 Cl    -0.910780    1.847842    9.013058    ( 0.0000,  0.0000,  0.0000)

Unit cell:
           periodic     x           y           z      points  spacing
  1. axis:    yes   11.703590    0.000000    0.000000    70     0.1672
  2. axis:    yes    0.000000    7.402000    0.000000    42     0.1762
  3. axis:    no     0.000000    0.000000   33.459128   192     0.1743

  Lengths:  11.703590   7.402000  33.459128
  Angles:   90.000000  90.000000  90.000000

Effective grid spacing dv^(1/3) = 0.1725

     iter     time        total  log10-change:
                         energy  eigst   dens
iter:   1 12:29:51 -7415.684487  -2.27
iter:   2 12:33:40 -7414.911754  -2.91  -2.37
iter:   3 12:37:29 -7414.839271  -4.26  -2.80
iter:   4 12:41:18 -7414.885008c -4.00  -2.92
iter:   5 12:45:05 -7414.819936c -3.72  -2.88
iter:   6 12:48:53 -7414.807792c -5.01  -3.38
iter:   7 12:52:42 -7414.807815c -4.15  -3.46
iter:   8 12:56:30 -7414.807210c -5.65  -3.70
iter:   9 13:00:18 -7414.803526c -4.83  -3.78
iter:  10 13:04:07 -7414.804272c -5.69  -3.85
iter:  11 13:07:56 -7414.803046c -5.62  -3.82
iter:  12 13:11:44 -7414.802951c -6.68  -4.17c
iter:  13 13:15:32 -7414.802959c -6.31  -4.26c
iter:  14 13:19:20 -7414.802904c -7.04  -4.40c
iter:  15 13:23:07 -7414.802892c -6.87  -4.53c
iter:  16 13:26:54 -7414.802948c -6.95  -4.64c
iter:  17 13:30:43 -7414.802932c -8.13c -4.84c

Converged after 17 iterations.

Dipole moment: (26.017213, -0.373443, 0.000305) |e|*Ang

Energy contributions relative to reference atoms: (reference = -4372279.174330)

Kinetic:       +712.009358
Potential:     -788.867456
External:        +0.000000
XC:            -7336.057623
Entropy (-ST):   -0.931701
Local:           -1.421361
--------------------------
Free energy:   -7415.268783
Extrapolated:  -7414.802932

Showing only first 2 kpts
 Kpt  Band  Eigenvalues  Occupancy
  0   540      0.41989    0.41844
  0   541      0.43312    0.37633
  0   542      0.46475    0.28904
  0   543      0.48086    0.25143

  1   540     -0.01618    1.90791
  1   541      0.06793    1.79869
  1   542      0.12877    1.65885
  1   543      0.15135    1.59013


Fermi level: 0.28692

No gap

Forces in eV/Ang:
  0 Cu    0.04585   -0.12294   -0.03260
  1 Cu    0.08755    0.00231   -0.08161
  2 Cu   -0.00042    0.00561   -0.05237
  3 Cu    0.04662    0.12079   -0.03286
  4 Cu   -0.04804    0.06910    0.02280
  5 Cu   -0.01773    0.00162    0.03552
  6 Cu   -0.06292    0.00493   -0.09502
  7 Cu   -0.04458   -0.07428    0.02153
  8 Cu    0.00078   -0.07532    0.11020
  9 Cu    0.02257   -0.00038    0.13174
 10 Cu    0.09550    0.00774    0.03211
 11 Cu   -0.00063    0.07126    0.10764
 12 Cu   -0.03841    0.02843    0.08867
 13 Cu    0.00958   -0.00356   -0.12579
 14 Cu   -0.04342    0.00340   -0.02605
 15 Cu   -0.04708   -0.02933    0.08039
 16 Cu   -0.01387   -0.02486   -0.05189
 17 Cu   -0.00843    0.01047   -0.04898
 18 Cu    0.03207   -0.01022   -0.03274
 19 Cu   -0.02269    0.02302   -0.04723
 20 Cu    0.00197    0.01779    0.01883
 21 Cu    0.00327    0.01064   -0.02869
 22 Cu    0.01127   -0.01172    0.00763
 23 Cu    0.01206   -0.01432    0.03092
 24 Cu   -0.01045    0.01137   -0.01094
 25 Cu   -0.01225    0.01440   -0.03427
 26 Cu   -0.00215   -0.01787   -0.02254
 27 Cu   -0.00211   -0.01031    0.02556
 28 Cu   -0.03265    0.01015    0.03023
 29 Cu    0.02336   -0.02352    0.04805
 30 Cu    0.01491    0.02534    0.05266
 31 Cu    0.00843   -0.01037    0.04731
 32 Cu    0.04459   -0.00332    0.02977
 33 Cu    0.04570    0.02850   -0.07763
 34 Cu    0.03700   -0.02764   -0.08580
 35 Cu   -0.00901    0.00347    0.12761
 36 Cu   -0.09336   -0.00777   -0.02598
 37 Cu    0.00307   -0.06939   -0.10448
 38 Cu    0.00165    0.07344   -0.10719
 39 Cu   -0.02412    0.00043   -0.12659
 40 Cu    0.05994   -0.00492    0.09203
 41 Cu    0.04006    0.07483   -0.02341
 42 Cu    0.04354   -0.06968   -0.02465
 43 Cu    0.01364   -0.00153   -0.03776
 44 Cu    0.00832   -0.00559    0.04752
 45 Cu   -0.04680   -0.12285    0.03006
 46 Cu   -0.04608    0.12494    0.02967
 47 Cu   -0.08021   -0.00233    0.07733
 48 Cu    0.04662    0.12079   -0.03286
 49 Cu   -0.00042    0.00561   -0.05237
 50 Cu    0.08755    0.00231   -0.08161
 51 Cu    0.04585   -0.12294   -0.03260
 52 Cu   -0.04458   -0.07428    0.02153
 53 Cu   -0.06292    0.00494   -0.09502
 54 Cu   -0.01773    0.00162    0.03553
 55 Cu   -0.04804    0.06910    0.02280
 56 Cu   -0.00063    0.07126    0.10764
 57 Cu    0.09550    0.00774    0.03210
 58 Cu    0.02257   -0.00038    0.13174
 59 Cu    0.00078   -0.07532    0.11020
 60 Cu   -0.04708   -0.02933    0.08039
 61 Cu   -0.04342    0.00341   -0.02606
 62 Cu    0.00958   -0.00356   -0.12579
 63 Cu   -0.03840    0.02843    0.08868
 64 Cu   -0.02269    0.02302   -0.04723
 65 Cu    0.03207   -0.01023   -0.03274
 66 Cu   -0.00843    0.01047   -0.04898
 67 Cu   -0.01387   -0.02487   -0.05189
 68 Cu    0.01206   -0.01432    0.03092
 69 Cu    0.01128   -0.01172    0.00763
 70 Cu    0.00327    0.01064   -0.02869
 71 Cu    0.00197    0.01779    0.01883
 72 Cu   -0.00212   -0.01031    0.02556
 73 Cu   -0.00216   -0.01787   -0.02254
 74 Cu   -0.01226    0.01439   -0.03427
 75 Cu   -0.01045    0.01137   -0.01094
 76 Cu    0.00843   -0.01036    0.04731
 77 Cu    0.01492    0.02534    0.05266
 78 Cu    0.02337   -0.02352    0.04805
 79 Cu   -0.03265    0.01015    0.03023
 80 Cu   -0.00900    0.00347    0.12761
 81 Cu    0.03699   -0.02764   -0.08580
 82 Cu    0.04570    0.02850   -0.07762
 83 Cu    0.04459   -0.00332    0.02976
 84 Cu   -0.02413    0.00043   -0.12659
 85 Cu    0.00165    0.07344   -0.10719
 86 Cu    0.00307   -0.06938   -0.10448
 87 Cu   -0.09336   -0.00777   -0.02598
 88 Cu    0.01364   -0.00154   -0.03776
 89 Cu    0.04354   -0.06968   -0.02465
 90 Cu    0.04006    0.07483   -0.02341
 91 Cu    0.05994   -0.00492    0.09203
 92 Cu   -0.08021   -0.00233    0.07733
 93 Cu   -0.04608    0.12494    0.02967
 94 Cu   -0.04680   -0.12285    0.03006
 95 Cu    0.00832   -0.00559    0.04752
 96 Cl    0.08798    0.00875   -0.01430
 97 Cl    0.08798    0.00875   -0.01430
 98 Cl   -0.08723   -0.00877    0.01492
 99 Cl   -0.08723   -0.00877    0.01492

System changes: positions 

Initializing position-dependent things.

Density initialized from wave functions
      .----------------------------.  
     /|                            |  
    / |                            |  
   /  |                            |  
  /   |                            |  
 *    |                            |  
 |    |                            |  
 |    |                            |  
 |    |                            |  
 |    |                            |  
 |    |                            |  
 |    |                            |  
 |    |                            |  
 |    |                            |  
 |    |  Cl   Cu            CCu    |  
 |    | Cu             Cu       Cu |  
 |    |     Cu   Cu  Cl   Cu   Cu  |  
 |    Cu   Cu    Cu Cu    Cu       |  
 |    Cu   Cu  Cu   Cu    Cu Cu    |  
 |   Cu  Cu   Cu    Cu   Cu  Cu    |  
 |    |  Cu   Cu       Cu    Cu   Cu  
 | Cu | Cu    Cu  Cu   Cu    Cu    |  
 | Cu | Cu    Cu Cu    Cu Cu       |  
 |    | Cu  Cu   Cu       Cu    Cu |  
 |    Cu   Cu    Cu       Cu   Cu  |  
 |    Cu   Cu  Cu   Cu    Cu       |  
 |   CCu      Cu    Cu   Cu  Cu    |  
 |    |  Cu   Cu       Cu    Cu   Cu  
 |    | Cu    Cu  Cu   Cu    Cu    |  
 | Cu | Cu  CuCu Cu    Cu          |  
 |    |     Cu   Cu       Cu    Cu |  
 |    Cu   Cu    Cl       Cu       |  
 |    Cu       Cu   Cu             |  
 |    |                            |  
 |    |                Cu    Cl    |  
 |    |                            |  
 |    |                            |  
 |    |                            |  
 |    |                            |  
 |    |                            |  
 |    |                            |  
 |    .----------------------------.  
 |   /                            /   
 |  /                            /    
 | /                            /     
 |/                            /      
 *----------------------------*       

Positions:
   0 Cu     3.180398   -0.005393   10.053680    ( 0.0000,  0.0000,  0.0000)
   1 Cu     1.418787    1.849666   10.574841    ( 0.0000,  0.0000,  0.0000)
   2 Cu     7.287020    1.849717   10.643793    ( 0.0000,  0.0000,  0.0000)
   3 Cu     9.033169    0.005860   10.054183    ( 0.0000,  0.0000,  0.0000)
   4 Cu    11.406549   -0.045071   11.153885    ( 0.0000,  0.0000,  0.0000)
   5 Cu     9.640753    1.851256   11.775314    ( 0.0000,  0.0000,  0.0000)
   6 Cu     3.771071    1.850218   11.706088    ( 0.0000,  0.0000,  0.0000)
   7 Cu     5.553052    0.046398   11.155013    ( 0.0000,  0.0000,  0.0000)
   8 Cu     7.866227   -0.011307   12.301615    ( 0.0000,  0.0000,  0.0000)
   9 Cu     6.088122    1.849901   12.911412    ( 0.0000,  0.0000,  0.0000)
  10 Cu     0.251862    1.850175   12.927036    ( 0.0000,  0.0000,  0.0000)
  11 Cu     2.016012    0.010446   12.304728    ( 0.0000,  0.0000,  0.0000)
  12 Cu     4.358120    0.000090   13.482671    ( 0.0000,  0.0000,  0.0000)
  13 Cu     2.598234    1.851816   14.114405    ( 0.0000,  0.0000,  0.0000)
  14 Cu     8.451887    1.849221   14.094044    ( 0.0000,  0.0000,  0.0000)
  15 Cu    10.210003   -0.000598   13.478470    ( 0.0000,  0.0000,  0.0000)
  16 Cu     0.856716   -0.004793   14.668115    ( 0.0000,  0.0000,  0.0000)
  17 Cu    10.798077    1.851362   15.276059    ( 0.0000,  0.0000,  0.0000)
  18 Cu     4.943034    1.849442   15.256358    ( 0.0000,  0.0000,  0.0000)
  19 Cu     6.712989    0.005344   14.668436    ( 0.0000,  0.0000,  0.0000)
  20 Cu     9.049493    0.001395   15.839989    ( 0.0000,  0.0000,  0.0000)
  21 Cu     7.283931    1.854525   16.448933    ( 0.0000,  0.0000,  0.0000)
  22 Cu     1.426450    1.846746   16.450348    ( 0.0000,  0.0000,  0.0000)
  23 Cu     3.193935   -0.001889   15.842186    ( 0.0000,  0.0000,  0.0000)
  24 Cu     5.531164    0.003766   17.008809    ( 0.0000,  0.0000,  0.0000)
  25 Cu     3.763668    1.852368   17.616948    ( 0.0000,  0.0000,  0.0000)
  26 Cu     9.611686    1.849130   17.619164    ( 0.0000,  0.0000,  0.0000)
  27 Cu    11.377285   -0.004035   17.010184    ( 0.0000,  0.0000,  0.0000)
  28 Cu     2.014565    0.001061   18.202732    ( 0.0000,  0.0000,  0.0000)
  29 Cu     0.244463    1.845135   18.790493    ( 0.0000,  0.0000,  0.0000)
  30 Cu     6.100753    1.855314   18.790811    ( 0.0000,  0.0000,  0.0000)
  31 Cu     7.863114   -0.000863   18.182996    ( 0.0000,  0.0000,  0.0000)
  32 Cu    10.209216    0.001275   19.364754    ( 0.0000,  0.0000,  0.0000)
  33 Cu     8.451246    1.851114   19.980433    ( 0.0000,  0.0000,  0.0000)
  34 Cu     2.599537    1.850391   19.976202    ( 0.0000,  0.0000,  0.0000)
  35 Cu     4.359235   -0.001308   19.344488    ( 0.0000,  0.0000,  0.0000)
  36 Cu     6.705408    0.000322   20.531809    ( 0.0000,  0.0000,  0.0000)
  37 Cu     4.941203    1.839938   21.154601    ( 0.0000,  0.0000,  0.0000)
  38 Cu    10.794591    1.861920   21.157731    ( 0.0000,  0.0000,  0.0000)
  39 Cu     0.869262    0.000595   20.547568    ( 0.0000,  0.0000,  0.0000)
  40 Cu     3.186584    0.000287   21.753408    ( 0.0000,  0.0000,  0.0000)
  41 Cu     1.404322    1.803724   22.303981    ( 0.0000,  0.0000,  0.0000)
  42 Cu     7.254414    1.895933   22.305096    ( 0.0000,  0.0000,  0.0000)
  43 Cu     9.020337   -0.000772   21.684009    ( 0.0000,  0.0000,  0.0000)
  44 Cu    11.372639    0.000772   22.815580    ( 0.0000,  0.0000,  0.0000)
  45 Cu     9.627341    1.845237   23.406461    ( 0.0000,  0.0000,  0.0000)
  46 Cu     3.776514    1.855304   23.406999    ( 0.0000,  0.0000,  0.0000)
  47 Cu     5.537458    0.000847   22.884875    ( 0.0000,  0.0000,  0.0000)
  48 Cu     3.181374    3.706860   10.054184    ( 0.0000,  0.0000,  0.0000)
  49 Cu     1.435225    5.550717   10.643793    ( 0.0000,  0.0000,  0.0000)
  50 Cu     7.270582    5.550666   10.574842    ( 0.0000,  0.0000,  0.0000)
  51 Cu     9.032193    3.695607   10.053679    ( 0.0000,  0.0000,  0.0000)
  52 Cu    11.404847    3.747399   11.155013    ( 0.0000,  0.0000,  0.0000)
  53 Cu     9.622866    5.551218   11.706088    ( 0.0000,  0.0000,  0.0000)
  54 Cu     3.788959    5.552256   11.775313    ( 0.0000,  0.0000,  0.0000)
  55 Cu     5.554754    3.655929   11.153884    ( 0.0000,  0.0000,  0.0000)
  56 Cu     7.867807    3.711446   12.304728    ( 0.0000,  0.0000,  0.0000)
  57 Cu     6.103658    5.551175   12.927036    ( 0.0000,  0.0000,  0.0000)
  58 Cu     0.236326    5.550901   12.911412    ( 0.0000,  0.0000,  0.0000)
  59 Cu     2.014432    3.689693   12.301615    ( 0.0000,  0.0000,  0.0000)
  60 Cu     4.358209    3.700402   13.478470    ( 0.0000,  0.0000,  0.0000)
  61 Cu     2.600092    5.550221   14.094044    ( 0.0000,  0.0000,  0.0000)
  62 Cu     8.450029    5.552816   14.114405    ( 0.0000,  0.0000,  0.0000)
  63 Cu    10.209914    3.701090   13.482671    ( 0.0000,  0.0000,  0.0000)
  64 Cu     0.861194    3.706344   14.668437    ( 0.0000,  0.0000,  0.0000)
  65 Cu    10.794829    5.550442   15.256358    ( 0.0000,  0.0000,  0.0000)
  66 Cu     4.946282    5.552362   15.276059    ( 0.0000,  0.0000,  0.0000)
  67 Cu     6.708511    3.696207   14.668115    ( 0.0000,  0.0000,  0.0000)
  68 Cu     9.045730    3.699111   15.842186    ( 0.0000,  0.0000,  0.0000)
  69 Cu     7.278245    5.547747   16.450348    ( 0.0000,  0.0000,  0.0000)
  70 Cu     1.432136    5.555525   16.448933    ( 0.0000,  0.0000,  0.0000)
  71 Cu     3.197698    3.702395   15.839989    ( 0.0000,  0.0000,  0.0000)
  72 Cu     5.525491    3.696966   17.010184    ( 0.0000,  0.0000,  0.0000)
  73 Cu     3.759892    5.550130   17.619164    ( 0.0000,  0.0000,  0.0000)
  74 Cu     9.615463    5.553368   17.616948    ( 0.0000,  0.0000,  0.0000)
  75 Cu    11.382959    3.704766   17.008809    ( 0.0000,  0.0000,  0.0000)
  76 Cu     2.011319    3.700137   18.182996    ( 0.0000,  0.0000,  0.0000)
  77 Cu     0.248958    5.556314   18.790811    ( 0.0000,  0.0000,  0.0000)
  78 Cu     6.096258    5.546135   18.790493    ( 0.0000,  0.0000,  0.0000)
  79 Cu     7.866360    3.702061   18.202732    ( 0.0000,  0.0000,  0.0000)
  80 Cu    10.211030    3.699692   19.344489    ( 0.0000,  0.0000,  0.0000)
  81 Cu     8.451332    5.551391   19.976203    ( 0.0000,  0.0000,  0.0000)
  82 Cu     2.599451    5.552114   19.980433    ( 0.0000,  0.0000,  0.0000)
  83 Cu     4.357421    3.702275   19.364755    ( 0.0000,  0.0000,  0.0000)
  84 Cu     6.721057    3.701594   20.547568    ( 0.0000,  0.0000,  0.0000)
  85 Cu     4.942796    5.562920   21.157731    ( 0.0000,  0.0000,  0.0000)
  86 Cu    10.792998    5.540938   21.154601    ( 0.0000,  0.0000,  0.0000)
  87 Cu     0.853613    3.701322   20.531809    ( 0.0000,  0.0000,  0.0000)
  88 Cu     3.168542    3.700228   21.684008    ( 0.0000,  0.0000,  0.0000)
  89 Cu     1.402619    5.596934   22.305096    ( 0.0000,  0.0000,  0.0000)
  90 Cu     7.256116    5.504724   22.303981    ( 0.0000,  0.0000,  0.0000)
  91 Cu     9.038379    3.701287   21.753408    ( 0.0000,  0.0000,  0.0000)
  92 Cu    11.389253    3.701847   22.884875    ( 0.0000,  0.0000,  0.0000)
  93 Cu     9.628309    5.556304   23.406999    ( 0.0000,  0.0000,  0.0000)
  94 Cu     3.775546    5.546237   23.406461    ( 0.0000,  0.0000,  0.0000)
  95 Cu     5.520843    3.701772   22.815580    ( 0.0000,  0.0000,  0.0000)
  96 Cl     2.030493    3.705112   24.438562    ( 0.0000,  0.0000,  0.0000)
  97 Cl     7.882289    0.004112   24.438563    ( 0.0000,  0.0000,  0.0000)
  98 Cl     4.928729    5.547396    9.021643    ( 0.0000,  0.0000,  0.0000)
  99 Cl    -0.923065    1.846396    9.021642    ( 0.0000,  0.0000,  0.0000)

Unit cell:
           periodic     x           y           z      points  spacing
  1. axis:    yes   11.703590    0.000000    0.000000    70     0.1672
  2. axis:    yes    0.000000    7.402000    0.000000    42     0.1762
  3. axis:    no     0.000000    0.000000   33.459128   192     0.1743

  Lengths:  11.703590   7.402000  33.459128
  Angles:   90.000000  90.000000  90.000000

Effective grid spacing dv^(1/3) = 0.1725

     iter     time        total  log10-change:
                         energy  eigst   dens
iter:   1 13:36:53 -7414.962959  -2.75
iter:   2 13:40:40 -7414.916622  -3.90  -2.86
iter:   3 13:44:28 -7414.906700c -4.50  -2.97
iter:   4 13:48:19 -7414.889502c -4.62  -3.02
iter:   5 13:52:07 -7414.877278c -3.90  -3.11
iter:   6 13:55:56 -7414.870583c -4.95  -3.54
iter:   7 13:59:44 -7414.870244c -5.76  -3.66
iter:   8 14:03:32 -7414.870766c -5.36  -3.73
iter:   9 14:07:22 -7414.870733c -6.23  -4.00c
iter:  10 14:11:09 -7414.870472c -6.43  -4.10c
iter:  11 14:14:58 -7414.869987c -5.55  -4.09c
iter:  12 14:18:48 -7414.870055c -6.36  -4.37c
iter:  13 14:22:37 -7414.869987c -7.19  -4.44c
iter:  14 14:26:26 -7414.869911c -6.78  -4.52c
iter:  15 14:30:15 -7414.869944c -6.66  -4.62c
iter:  16 14:34:04 -7414.869939c -8.05c -4.81c

Converged after 16 iterations.

Dipole moment: (25.651829, -0.430705, -0.002043) |e|*Ang

Energy contributions relative to reference atoms: (reference = -4372279.174330)

Kinetic:       +712.232424
Potential:     -789.028538
External:        +0.000000
XC:            -7336.191367
Entropy (-ST):   -0.931460
Local:           -1.416728
--------------------------
Free energy:   -7415.335668
Extrapolated:  -7414.869939

Showing only first 2 kpts
 Kpt  Band  Eigenvalues  Occupancy
  0   540      0.43533    0.41850
  0   541      0.44732    0.38020
  0   542      0.48152    0.28581
  0   543      0.49626    0.25157

  1   540     -0.00113    1.90827
  1   541      0.08248    1.80033
  1   542      0.14467    1.65761
  1   543      0.16508    1.59576


Fermi level: 0.30239

No gap

Forces in eV/Ang:
  0 Cu    0.01778   -0.09169   -0.01081
  1 Cu    0.10154    0.00328   -0.05590
  2 Cu   -0.00075    0.00233   -0.03259
  3 Cu    0.01827    0.09183   -0.01120
  4 Cu   -0.02901    0.04687    0.02882
  5 Cu   -0.01880   -0.00003    0.04731
  6 Cu   -0.00529    0.00187   -0.07582
  7 Cu   -0.02539   -0.05062    0.02819
  8 Cu   -0.00787   -0.03634    0.07386
  9 Cu    0.02274   -0.00059    0.05259
 10 Cu    0.03659    0.00535    0.00180
 11 Cu   -0.01007    0.03753    0.06853
 12 Cu   -0.02787    0.02243    0.08510
 13 Cu    0.01986   -0.00498   -0.07994
 14 Cu   -0.01511    0.00394   -0.01334
 15 Cu   -0.03253   -0.02123    0.08443
 16 Cu   -0.01294    0.00177   -0.00826
 17 Cu    0.00106    0.00105   -0.05299
 18 Cu    0.01636   -0.00060   -0.00066
 19 Cu   -0.01798   -0.00378   -0.00718
 20 Cu   -0.01879    0.00350    0.02526
 21 Cu   -0.00377    0.00158   -0.02914
 22 Cu    0.00859   -0.00295   -0.02427
 23 Cu   -0.01259   -0.00085    0.03280
 24 Cu   -0.00803    0.00288    0.02515
 25 Cu    0.01282    0.00094   -0.03192
 26 Cu    0.01903   -0.00358   -0.02441
 27 Cu    0.00451   -0.00149    0.03062
 28 Cu   -0.01621    0.00060    0.00264
 29 Cu    0.01881    0.00402    0.01006
 30 Cu    0.01392   -0.00198    0.01134
 31 Cu   -0.00091   -0.00105    0.05543
 32 Cu    0.01558   -0.00396    0.01697
 33 Cu    0.03197    0.02114   -0.08168
 34 Cu    0.02725   -0.02235   -0.08220
 35 Cu   -0.01881    0.00497    0.08305
 36 Cu   -0.03530   -0.00539    0.00290
 37 Cu    0.01048   -0.03696   -0.06782
 38 Cu    0.00830    0.03577   -0.07318
 39 Cu   -0.02377    0.00061   -0.05026
 40 Cu    0.00309   -0.00187    0.07411
 41 Cu    0.02336    0.05177   -0.02703
 42 Cu    0.02690   -0.04799   -0.02764
 43 Cu    0.01638    0.00006   -0.04625
 44 Cu    0.00579   -0.00233    0.03298
 45 Cu   -0.01789   -0.09383    0.00888
 46 Cu   -0.01740    0.09364    0.00848
 47 Cu   -0.09533   -0.00331    0.05400
 48 Cu    0.01827    0.09183   -0.01120
 49 Cu   -0.00076    0.00233   -0.03258
 50 Cu    0.10153    0.00328   -0.05590
 51 Cu    0.01778   -0.09169   -0.01081
 52 Cu   -0.02539   -0.05062    0.02819
 53 Cu   -0.00529    0.00187   -0.07582
 54 Cu   -0.01880   -0.00003    0.04732
 55 Cu   -0.02901    0.04687    0.02882
 56 Cu   -0.01007    0.03753    0.06853
 57 Cu    0.03659    0.00535    0.00180
 58 Cu    0.02274   -0.00059    0.05259
 59 Cu   -0.00787   -0.03634    0.07386
 60 Cu   -0.03253   -0.02123    0.08443
 61 Cu   -0.01511    0.00394   -0.01334
 62 Cu    0.01986   -0.00498   -0.07994
 63 Cu   -0.02787    0.02243    0.08510
 64 Cu   -0.01799   -0.00378   -0.00718
 65 Cu    0.01636   -0.00060   -0.00066
 66 Cu    0.00106    0.00105   -0.05299
 67 Cu   -0.01294    0.00177   -0.00826
 68 Cu   -0.01259   -0.00085    0.03280
 69 Cu    0.00859   -0.00295   -0.02427
 70 Cu   -0.00378    0.00158   -0.02914
 71 Cu   -0.01879    0.00350    0.02526
 72 Cu    0.00451   -0.00149    0.03062
 73 Cu    0.01903   -0.00358   -0.02441
 74 Cu    0.01281    0.00094   -0.03192
 75 Cu   -0.00803    0.00288    0.02515
 76 Cu   -0.00091   -0.00104    0.05543
 77 Cu    0.01392   -0.00198    0.01134
 78 Cu    0.01882    0.00402    0.01006
 79 Cu   -0.01621    0.00060    0.00264
 80 Cu   -0.01881    0.00497    0.08305
 81 Cu    0.02725   -0.02234   -0.08220
 82 Cu    0.03197    0.02114   -0.08168
 83 Cu    0.01557   -0.00396    0.01697
 84 Cu   -0.02377    0.00061   -0.05026
 85 Cu    0.00830    0.03577   -0.07318
 86 Cu    0.01048   -0.03696   -0.06783
 87 Cu   -0.03530   -0.00539    0.00290
 88 Cu    0.01638    0.00006   -0.04625
 89 Cu    0.02690   -0.04799   -0.02764
 90 Cu    0.02336    0.05177   -0.02703
 91 Cu    0.00309   -0.00187    0.07411
 92 Cu   -0.09533   -0.00331    0.05400
 93 Cu   -0.01740    0.09364    0.00848
 94 Cu   -0.01789   -0.09383    0.00888
 95 Cu    0.00579   -0.00233    0.03298
 96 Cl    0.09928    0.00912    0.04155
 97 Cl    0.09928    0.00912    0.04155
 98 Cl   -0.09704   -0.00913   -0.04741
 99 Cl   -0.09704   -0.00913   -0.04741

System changes: positions 

Initializing position-dependent things.

Density initialized from wave functions
      .----------------------------.  
     /|                            |  
    / |                            |  
   /  |                            |  
  /   |                            |  
 *    |                            |  
 |    |                            |  
 |    |                            |  
 |    |                            |  
 |    |                            |  
 |    |                            |  
 |    |                            |  
 |    |                            |  
 |    |                           Cu  
 |    |  Cl   Cu            CCu    |  
 |    | Cu             Cu       Cu |  
 |    |     Cu   Cu  ClCu Cu   Cu  |  
 |    Cu   Cu    Cu Cu    Cu       |  
 |    Cu   Cu  Cu   Cu    Cu       |  
 |   Cu       Cu    Cu   Cu  Cu    |  
 |    |  Cu   Cu       Cu    Cu   Cu  
 | Cu | Cu    Cu       Cu    Cu    |  
 | Cu | Cu    Cu Cu    Cu Cu       |  
 |    | Cu  Cu   Cu       Cu    Cu |  
 |    Cu   Cu    Cu       Cu   CCu |  
 |    Cu   Cu  Cu   Cu    Cu       |  
 |   CCu       Cu   Cu   Cu  Cu    |  
 |    |  Cu   Cu       Cu    Cu   Cu  
 |    | Cu    Cu  Cu   Cu    Cu    |  
 | Cu | Cu  CuCu Cu    Cu          |  
 |    |     Cu   Cu       Cu    Cu |  
 |    Cu   Cu    Cl       Cu       |  
 |    Cu       Cu   Cu             |  
 |    |                            |  
 |    |                Cu    Cl    |  
 |    |                            |  
 |    |                            |  
 |    |                            |  
 |    |                            |  
 |    |                            |  
 |    |                            |  
 |    .----------------------------.  
 |   /                            /   
 |  /                            /    
 | /                            /     
 |/                            /      
 *----------------------------*       

Positions:
   0 Cu     3.204083   -0.062871   10.041557    ( 0.0000,  0.0000,  0.0000)
   1 Cu     1.437051    1.848690   10.543377    ( 0.0000,  0.0000,  0.0000)
   2 Cu     7.265676    1.851522   10.658774    ( 0.0000,  0.0000,  0.0000)
   3 Cu     9.056995    0.063259   10.041914    ( 0.0000,  0.0000,  0.0000)
   4 Cu    11.400627   -0.024147   11.179178    ( 0.0000,  0.0000,  0.0000)
   5 Cu     9.633268    1.852503   11.806459    ( 0.0000,  0.0000,  0.0000)
   6 Cu     3.752661    1.850837   11.667847    ( 0.0000,  0.0000,  0.0000)
   7 Cu     5.547321    0.025842   11.179847    ( 0.0000,  0.0000,  0.0000)
   8 Cu     7.870684   -0.029748   12.302086    ( 0.0000,  0.0000,  0.0000)
   9 Cu     6.077360    1.849721   12.936832    ( 0.0000,  0.0000,  0.0000)
  10 Cu     0.276274    1.851507   12.942025    ( 0.0000,  0.0000,  0.0000)
  11 Cu     2.021199    0.027823   12.307273    ( 0.0000,  0.0000,  0.0000)
  12 Cu     4.347864    0.004578   13.488160    ( 0.0000,  0.0000,  0.0000)
  13 Cu     2.598474    1.851563   14.103094    ( 0.0000,  0.0000,  0.0000)
  14 Cu     8.435146    1.849775   14.091747    ( 0.0000,  0.0000,  0.0000)
  15 Cu    10.198332   -0.005324   13.480616    ( 0.0000,  0.0000,  0.0000)
  16 Cu     0.855789   -0.012524   14.654820    ( 0.0000,  0.0000,  0.0000)
  17 Cu    10.794782    1.854644   15.274665    ( 0.0000,  0.0000,  0.0000)
  18 Cu     4.945968    1.846202   15.248707    ( 0.0000,  0.0000,  0.0000)
  19 Cu     6.712880    0.013409   14.656791    ( 0.0000,  0.0000,  0.0000)
  20 Cu     9.053559    0.006382   15.834709    ( 0.0000,  0.0000,  0.0000)
  21 Cu     7.286627    1.859726   16.452713    ( 0.0000,  0.0000,  0.0000)
  22 Cu     1.425251    1.841701   16.457363    ( 0.0000,  0.0000,  0.0000)
  23 Cu     3.200015   -0.006376   15.843251    ( 0.0000,  0.0000,  0.0000)
  24 Cu     5.532587    0.008749   17.001263    ( 0.0000,  0.0000,  0.0000)
  25 Cu     3.757625    1.856863   17.615336    ( 0.0000,  0.0000,  0.0000)
  26 Cu     9.607656    1.844135   17.623840    ( 0.0000,  0.0000,  0.0000)
  27 Cu    11.374895   -0.009175   17.005885    ( 0.0000,  0.0000,  0.0000)
  28 Cu     2.011594    0.004287   18.209991    ( 0.0000,  0.0000,  0.0000)
  29 Cu     0.244712    1.836951   18.802277    ( 0.0000,  0.0000,  0.0000)
  30 Cu     6.101895    1.863156   18.804234    ( 0.0000,  0.0000,  0.0000)
  31 Cu     7.866489   -0.004127   18.184102    ( 0.0000,  0.0000,  0.0000)
  32 Cu    10.226266    0.000736   19.367656    ( 0.0000,  0.0000,  0.0000)
  33 Cu     8.462797    1.855691   19.978766    ( 0.0000,  0.0000,  0.0000)
  34 Cu     2.609669    1.846042   19.971200    ( 0.0000,  0.0000,  0.0000)
  35 Cu     4.359113   -0.001069   19.356098    ( 0.0000,  0.0000,  0.0000)
  36 Cu     6.681384   -0.001016   20.517880    ( 0.0000,  0.0000,  0.0000)
  37 Cu     4.936421    1.822870   21.152788    ( 0.0000,  0.0000,  0.0000)
  38 Cu    10.790538    1.880052   21.157979    ( 0.0000,  0.0000,  0.0000)
  39 Cu     0.879771    0.000781   20.523112    ( 0.0000,  0.0000,  0.0000)
  40 Cu     3.204591   -0.000329   21.791329    ( 0.0000,  0.0000,  0.0000)
  41 Cu     1.409288    1.824230   22.278738    ( 0.0000,  0.0000,  0.0000)
  42 Cu     7.259574    1.875049   22.279390    ( 0.0000,  0.0000,  0.0000)
  43 Cu     9.027205   -0.002007   21.652560    ( 0.0000,  0.0000,  0.0000)
  44 Cu    11.395025   -0.001028   22.799832    ( 0.0000,  0.0000,  0.0000)
  45 Cu     9.603422    1.787709   23.418997    ( 0.0000,  0.0000,  0.0000)
  46 Cu     3.752729    1.912909   23.419373    ( 0.0000,  0.0000,  0.0000)
  47 Cu     5.520097    0.001823   22.915847    ( 0.0000,  0.0000,  0.0000)
  48 Cu     3.205200    3.764259   10.041915    ( 0.0000,  0.0000,  0.0000)
  49 Cu     1.413881    5.552522   10.658774    ( 0.0000,  0.0000,  0.0000)
  50 Cu     7.288846    5.549689   10.543377    ( 0.0000,  0.0000,  0.0000)
  51 Cu     9.055878    3.638129   10.041557    ( 0.0000,  0.0000,  0.0000)
  52 Cu    11.399116    3.726842   11.179847    ( 0.0000,  0.0000,  0.0000)
  53 Cu     9.604456    5.551837   11.667847    ( 0.0000,  0.0000,  0.0000)
  54 Cu     3.781473    5.553503   11.806459    ( 0.0000,  0.0000,  0.0000)
  55 Cu     5.548832    3.676853   11.179178    ( 0.0000,  0.0000,  0.0000)
  56 Cu     7.872994    3.728823   12.307272    ( 0.0000,  0.0000,  0.0000)
  57 Cu     6.128069    5.552507   12.942025    ( 0.0000,  0.0000,  0.0000)
  58 Cu     0.225565    5.550721   12.936833    ( 0.0000,  0.0000,  0.0000)
  59 Cu     2.018889    3.671252   12.302086    ( 0.0000,  0.0000,  0.0000)
  60 Cu     4.346537    3.695676   13.480616    ( 0.0000,  0.0000,  0.0000)
  61 Cu     2.583351    5.550775   14.091747    ( 0.0000,  0.0000,  0.0000)
  62 Cu     8.450269    5.552563   14.103094    ( 0.0000,  0.0000,  0.0000)
  63 Cu    10.199659    3.705578   13.488161    ( 0.0000,  0.0000,  0.0000)
  64 Cu     0.861084    3.714409   14.656792    ( 0.0000,  0.0000,  0.0000)
  65 Cu    10.797762    5.547202   15.248707    ( 0.0000,  0.0000,  0.0000)
  66 Cu     4.942987    5.555644   15.274665    ( 0.0000,  0.0000,  0.0000)
  67 Cu     6.707584    3.688476   14.654820    ( 0.0000,  0.0000,  0.0000)
  68 Cu     9.051810    3.694624   15.843251    ( 0.0000,  0.0000,  0.0000)
  69 Cu     7.277047    5.542701   16.457363    ( 0.0000,  0.0000,  0.0000)
  70 Cu     1.434832    5.560726   16.452714    ( 0.0000,  0.0000,  0.0000)
  71 Cu     3.201765    3.707382   15.834709    ( 0.0000,  0.0000,  0.0000)
  72 Cu     5.523099    3.691825   17.005885    ( 0.0000,  0.0000,  0.0000)
  73 Cu     3.755861    5.545135   17.623839    ( 0.0000,  0.0000,  0.0000)
  74 Cu     9.609420    5.557863   17.615336    ( 0.0000,  0.0000,  0.0000)
  75 Cu    11.384382    3.709749   17.001263    ( 0.0000,  0.0000,  0.0000)
  76 Cu     2.014694    3.696874   18.184102    ( 0.0000,  0.0000,  0.0000)
  77 Cu     0.250100    5.564155   18.804234    ( 0.0000,  0.0000,  0.0000)
  78 Cu     6.096507    5.537951   18.802277    ( 0.0000,  0.0000,  0.0000)
  79 Cu     7.863389    3.705287   18.209990    ( 0.0000,  0.0000,  0.0000)
  80 Cu    10.210909    3.699930   19.356098    ( 0.0000,  0.0000,  0.0000)
  81 Cu     8.461463    5.547042   19.971200    ( 0.0000,  0.0000,  0.0000)
  82 Cu     2.611001    5.556692   19.978766    ( 0.0000,  0.0000,  0.0000)
  83 Cu     4.374472    3.701736   19.367656    ( 0.0000,  0.0000,  0.0000)
  84 Cu     6.731566    3.701782   20.523112    ( 0.0000,  0.0000,  0.0000)
  85 Cu     4.938743    5.581052   21.157980    ( 0.0000,  0.0000,  0.0000)
  86 Cu    10.788216    5.523870   21.152788    ( 0.0000,  0.0000,  0.0000)
  87 Cu     0.829589    3.699984   20.517880    ( 0.0000,  0.0000,  0.0000)
  88 Cu     3.175410    3.698993   21.652561    ( 0.0000,  0.0000,  0.0000)
  89 Cu     1.407779    5.576049   22.279390    ( 0.0000,  0.0000,  0.0000)
  90 Cu     7.261082    5.525230   22.278737    ( 0.0000,  0.0000,  0.0000)
  91 Cu     9.056386    3.700671   21.791329    ( 0.0000,  0.0000,  0.0000)
  92 Cu    11.371892    3.702824   22.915847    ( 0.0000,  0.0000,  0.0000)
  93 Cu     9.604524    5.613909   23.419374    ( 0.0000,  0.0000,  0.0000)
  94 Cu     3.751627    5.488709   23.418997    ( 0.0000,  0.0000,  0.0000)
  95 Cu     5.543230    3.699972   22.799832    ( 0.0000,  0.0000,  0.0000)
  96 Cl     2.060746    3.708541   24.418893    ( 0.0000,  0.0000,  0.0000)
  97 Cl     7.912542    0.007541   24.418893    ( 0.0000,  0.0000,  0.0000)
  98 Cl     4.899600    5.543969    9.041998    ( 0.0000,  0.0000,  0.0000)
  99 Cl    -0.952195    1.842969    9.041997    ( 0.0000,  0.0000,  0.0000)

Unit cell:
           periodic     x           y           z      points  spacing
  1. axis:    yes   11.703590    0.000000    0.000000    70     0.1672
  2. axis:    yes    0.000000    7.402000    0.000000    42     0.1762
  3. axis:    no     0.000000    0.000000   33.459128   192     0.1743

  Lengths:  11.703590   7.402000  33.459128
  Angles:   90.000000  90.000000  90.000000

Effective grid spacing dv^(1/3) = 0.1725

     iter     time        total  log10-change:
                         energy  eigst   dens
iter:   1 14:40:13 -7415.472990  -1.99
iter:   2 14:44:02 -7415.177748  -3.12  -2.47
iter:   3 14:47:51 -7415.122329c -3.73  -2.60
iter:   4 14:51:39 -7415.022581c -3.88  -2.63
iter:   5 14:55:27 -7414.948087c -3.12  -2.73
iter:   6 14:59:17 -7414.910977c -4.24  -3.17
iter:   7 15:03:05 -7414.908874c -4.85  -3.28
iter:   8 15:06:52 -7414.910554c -4.68  -3.35
iter:   9 15:10:41 -7414.911379c -5.49  -3.62
iter:  10 15:14:30 -7414.909714c -5.74  -3.69
iter:  11 15:18:20 -7414.907189c -4.84  -3.71
iter:  12 15:22:08 -7414.908084c -5.33  -3.91
iter:  13 15:25:57 -7414.907615c -6.40  -4.02c
iter:  14 15:29:47 -7414.906974c -5.94  -4.11c
iter:  15 15:33:36 -7414.906879c -5.90  -4.21c
iter:  16 15:37:26 -7414.906863c -7.05  -4.38c
iter:  17 15:41:18 -7414.906875c -6.97  -4.36c
iter:  18 15:45:10 -7414.906877c -7.37  -4.54c
iter:  19 15:49:00 -7414.906844c -7.17  -4.75c
iter:  20 15:52:51 -7414.906845c -8.44c -4.86c

Converged after 20 iterations.

[...]
   7 Cu     5.555462   -0.045626   11.199814    ( 0.0000,  0.0000,  0.0000)
   8 Cu     7.902394    0.004461   12.335729    ( 0.0000,  0.0000,  0.0000)
   9 Cu     6.138124    1.849889   12.908056    ( 0.0000,  0.0000,  0.0000)
  10 Cu     0.281752    1.849222   12.956318    ( 0.0000,  0.0000,  0.0000)
  11 Cu     2.051761   -0.006699   12.331441    ( 0.0000,  0.0000,  0.0000)
  12 Cu     4.363021    0.021117   13.518434    ( 0.0000,  0.0000,  0.0000)
  13 Cu     2.625437    1.848814   14.095290    ( 0.0000,  0.0000,  0.0000)
  14 Cu     8.465050    1.851456   14.112465    ( 0.0000,  0.0000,  0.0000)
  15 Cu    10.215372   -0.022438   13.513904    ( 0.0000,  0.0000,  0.0000)
  16 Cu     0.866154    0.000856   14.679983    ( 0.0000,  0.0000,  0.0000)
  17 Cu    10.800057    1.850341   15.265262    ( 0.0000,  0.0000,  0.0000)
  18 Cu     4.961293    1.849701   15.251940    ( 0.0000,  0.0000,  0.0000)
  19 Cu     6.717213   -0.002253   14.683424    ( 0.0000,  0.0000,  0.0000)
  20 Cu     9.042362   -0.000293   15.855020    ( 0.0000,  0.0000,  0.0000)
  21 Cu     7.282981    1.851817   16.447543    ( 0.0000,  0.0000,  0.0000)
  22 Cu     1.434506    1.848478   16.445437    ( 0.0000,  0.0000,  0.0000)
  23 Cu     3.188768   -0.000530   15.864705    ( 0.0000,  0.0000,  0.0000)
  24 Cu     5.525074    0.002060   17.017387    ( 0.0000,  0.0000,  0.0000)
  25 Cu     3.770792    1.851018   17.598122    ( 0.0000,  0.0000,  0.0000)
  26 Cu     9.620792    1.850820   17.607830    ( 0.0000,  0.0000,  0.0000)
  27 Cu    11.380287   -0.001344   17.015256    ( 0.0000,  0.0000,  0.0000)
  28 Cu     1.998216    0.000850   18.210756    ( 0.0000,  0.0000,  0.0000)
  29 Cu     0.242358    1.852802   18.778994    ( 0.0000,  0.0000,  0.0000)
  30 Cu     6.093431    1.849579   18.782390    ( 0.0000,  0.0000,  0.0000)
  31 Cu     7.863199    0.000126   18.197423    ( 0.0000,  0.0000,  0.0000)
  32 Cu    10.198377   -0.000936   19.349724    ( 0.0000,  0.0000,  0.0000)
  33 Cu     8.447625    1.872901   19.948348    ( 0.0000,  0.0000,  0.0000)
  34 Cu     2.596445    1.829422   19.943823    ( 0.0000,  0.0000,  0.0000)
  35 Cu     4.333926    0.001650   19.366918    ( 0.0000,  0.0000,  0.0000)
  36 Cu     6.677622    0.001260   20.505567    ( 0.0000,  0.0000,  0.0000)
  37 Cu     4.907490    1.856926   21.130171    ( 0.0000,  0.0000,  0.0000)
  38 Cu    10.760480    1.846326   21.125914    ( 0.0000,  0.0000,  0.0000)
  39 Cu     0.821387    0.000585   20.553767    ( 0.0000,  0.0000,  0.0000)
  40 Cu     3.104918    0.003914   21.832181    ( 0.0000,  0.0000,  0.0000)
  41 Cu     1.403527    1.896796   22.262240    ( 0.0000,  0.0000,  0.0000)
  42 Cu     7.254907    1.806773   22.260865    ( 0.0000,  0.0000,  0.0000)
  43 Cu     8.995816   -0.000065   21.659463    ( 0.0000,  0.0000,  0.0000)
  44 Cu    11.465686    0.003019   22.854393    ( 0.0000,  0.0000,  0.0000)
  45 Cu     9.607413    1.825765   23.415050    ( 0.0000,  0.0000,  0.0000)
  46 Cu     3.757925    1.879983   23.421170    ( 0.0000,  0.0000,  0.0000)
  47 Cu     5.472504    0.000525   22.793726    ( 0.0000,  0.0000,  0.0000)
  48 Cu     3.203242    3.726152   10.045727    ( 0.0000,  0.0000,  0.0000)
  49 Cu     1.346138    5.548436   10.606492    ( 0.0000,  0.0000,  0.0000)
  50 Cu     7.338362    5.551010   10.668348    ( 0.0000,  0.0000,  0.0000)
  51 Cu     9.052793    3.671202   10.039733    ( 0.0000,  0.0000,  0.0000)
  52 Cu    11.407257    3.655374   11.199814    ( 0.0000,  0.0000,  0.0000)
  53 Cu     9.705642    5.547633   11.629466    ( 0.0000,  0.0000,  0.0000)
  54 Cu     3.815455    5.551594   11.801929    ( 0.0000,  0.0000,  0.0000)
  55 Cu     5.555872    3.744060   11.201214    ( 0.0000,  0.0000,  0.0000)
  56 Cu     7.903556    3.694301   12.331441    ( 0.0000,  0.0000,  0.0000)
  57 Cu     6.133547    5.550222   12.956318    ( 0.0000,  0.0000,  0.0000)
  58 Cu     0.286329    5.550889   12.908056    ( 0.0000,  0.0000,  0.0000)
  59 Cu     2.050599    3.705460   12.335728    ( 0.0000,  0.0000,  0.0000)
  60 Cu     4.363577    3.678562   13.513904    ( 0.0000,  0.0000,  0.0000)
  61 Cu     2.613255    5.552456   14.112465    ( 0.0000,  0.0000,  0.0000)
  62 Cu     8.477232    5.549814   14.095290    ( 0.0000,  0.0000,  0.0000)
  63 Cu    10.214816    3.722117   13.518434    ( 0.0000,  0.0000,  0.0000)
  64 Cu     0.865418    3.698747   14.683424    ( 0.0000,  0.0000,  0.0000)
  65 Cu    10.813088    5.550701   15.251940    ( 0.0000,  0.0000,  0.0000)
  66 Cu     4.948262    5.551341   15.265262    ( 0.0000,  0.0000,  0.0000)
  67 Cu     6.717949    3.701856   14.679983    ( 0.0000,  0.0000,  0.0000)
  68 Cu     9.040563    3.700470   15.864705    ( 0.0000,  0.0000,  0.0000)
  69 Cu     7.286301    5.549478   16.445437    ( 0.0000,  0.0000,  0.0000)
  70 Cu     1.431186    5.552817   16.447543    ( 0.0000,  0.0000,  0.0000)
  71 Cu     3.190567    3.700707   15.855020    ( 0.0000,  0.0000,  0.0000)
  72 Cu     5.528492    3.699656   17.015256    ( 0.0000,  0.0000,  0.0000)
  73 Cu     3.768997    5.551820   17.607830    ( 0.0000,  0.0000,  0.0000)
  74 Cu     9.622587    5.552017   17.598122    ( 0.0000,  0.0000,  0.0000)
  75 Cu    11.376869    3.703060   17.017387    ( 0.0000,  0.0000,  0.0000)
  76 Cu     2.011404    3.701126   18.197423    ( 0.0000,  0.0000,  0.0000)
  77 Cu     0.241636    5.550579   18.782390    ( 0.0000,  0.0000,  0.0000)
  78 Cu     6.094153    5.553802   18.778994    ( 0.0000,  0.0000,  0.0000)
  79 Cu     7.850011    3.701850   18.210756    ( 0.0000,  0.0000,  0.0000)
  80 Cu    10.185721    3.702650   19.366918    ( 0.0000,  0.0000,  0.0000)
  81 Cu     8.448240    5.530421   19.943823    ( 0.0000,  0.0000,  0.0000)
  82 Cu     2.595830    5.573901   19.948347    ( 0.0000,  0.0000,  0.0000)
  83 Cu     4.346582    3.700065   19.349725    ( 0.0000,  0.0000,  0.0000)
  84 Cu     6.673182    3.701585   20.553767    ( 0.0000,  0.0000,  0.0000)
  85 Cu     4.908685    5.547326   21.125914    ( 0.0000,  0.0000,  0.0000)
  86 Cu    10.759285    5.557926   21.130171    ( 0.0000,  0.0000,  0.0000)
  87 Cu     0.825827    3.702260   20.505567    ( 0.0000,  0.0000,  0.0000)
  88 Cu     3.144021    3.700935   21.659464    ( 0.0000,  0.0000,  0.0000)
  89 Cu     1.403112    5.507773   22.260865    ( 0.0000,  0.0000,  0.0000)
  90 Cu     7.255322    5.597796   22.262240    ( 0.0000,  0.0000,  0.0000)
  91 Cu     8.956713    3.704914   21.832181    ( 0.0000,  0.0000,  0.0000)
  92 Cu    11.324298    3.701525   22.793726    ( 0.0000,  0.0000,  0.0000)
  93 Cu     9.609720    5.580983   23.421170    ( 0.0000,  0.0000,  0.0000)
  94 Cu     3.755618    5.526765   23.415050    ( 0.0000,  0.0000,  0.0000)
  95 Cu     5.613891    3.704020   22.854393    ( 0.0000,  0.0000,  0.0000)
  96 Cl     4.238114    3.707251   24.931326    ( 0.0000,  0.0000,  0.0000)
  97 Cl    10.089909    0.006251   24.931326    ( 0.0000,  0.0000,  0.0000)
  98 Cl     2.721983    5.545370    8.528268    ( 0.0000,  0.0000,  0.0000)
  99 Cl    -3.129813    1.844370    8.528268    ( 0.0000,  0.0000,  0.0000)

Unit cell:
           periodic     x           y           z      points  spacing
  1. axis:    yes   11.703590    0.000000    0.000000    70     0.1672
  2. axis:    yes    0.000000    7.402000    0.000000    42     0.1762
  3. axis:    no     0.000000    0.000000   33.459128   192     0.1743

  Lengths:  11.703590   7.402000  33.459128
  Angles:   90.000000  90.000000  90.000000

Effective grid spacing dv^(1/3) = 0.1725

     iter     time        total  log10-change:
                         energy  eigst   dens
iter:   1 04:43:22 -7416.528020  -3.71
iter:   2 04:47:20 -7416.575632  -4.20  -3.18
iter:   3 04:51:18 -7416.505079c -4.73  -2.94
iter:   4 04:55:16 -7416.503175c -5.42  -3.49
iter:   5 04:59:13 -7416.502814c -5.08  -3.63
iter:   6 05:03:12 -7416.502195c -5.85  -3.98
iter:   7 05:07:10 -7416.502163c -6.72  -4.16c
iter:   8 05:11:09 -7416.502223c -6.84  -4.25c
iter:   9 05:15:07 -7416.502226c -6.65  -4.23c
iter:  10 05:19:06 -7416.502201c -7.03  -4.37c
iter:  11 05:23:05 -7416.502167c -7.71c -4.65c

Converged after 11 iterations.

Dipole moment: (18.255308, -0.482722, 0.002532) |e|*Ang

Energy contributions relative to reference atoms: (reference = -4372279.174330)

Kinetic:       +703.327552
Potential:     -782.504402
External:        +0.000000
XC:            -7335.505927
Entropy (-ST):   -0.951903
Local:           -1.343438
--------------------------
Free energy:   -7416.978118
Extrapolated:  -7416.502167

Showing only first 2 kpts
 Kpt  Band  Eigenvalues  Occupancy
  0   540      0.30373    0.65611
  0   541      0.36676    0.41261
  0   542      0.38225    0.36420
  0   543      0.42225    0.25972

  1   540      0.00119    1.81914
  1   541      0.03844    1.74779
  1   542      0.06723    1.67723
  1   543      0.09682    1.58894


Fermi level: 0.23203

No gap

Forces in eV/Ang:
  0 Cu   -0.00205   -0.00728   -0.00001
  1 Cu   -0.01505   -0.00154   -0.00462
  2 Cu   -0.00331    0.00055   -0.00898
  3 Cu   -0.00356    0.01139   -0.00565
  4 Cu   -0.00220   -0.00800   -0.01677
  5 Cu   -0.00620    0.00019   -0.00672
  6 Cu   -0.01832    0.00169   -0.00400
  7 Cu   -0.00733    0.00712   -0.01048
  8 Cu   -0.01063   -0.00481   -0.00275
  9 Cu   -0.00504   -0.00277   -0.00443
 10 Cu   -0.01116    0.00190   -0.00972
 11 Cu   -0.01225    0.00193   -0.00063
 12 Cu   -0.00790   -0.00504    0.00421
 13 Cu   -0.00677   -0.00199    0.00678
 14 Cu   -0.00181    0.00032   -0.00063
 15 Cu   -0.00703    0.00276   -0.00400
 16 Cu   -0.00473   -0.00156   -0.00022
 17 Cu    0.00478    0.00099   -0.00568
 18 Cu    0.00064    0.00014    0.00302
 19 Cu   -0.00056    0.00416   -0.00358
 20 Cu    0.00507   -0.00186    0.00048
 21 Cu    0.00685   -0.00139   -0.00063
 22 Cu   -0.00470    0.00401    0.00326
 23 Cu    0.00258    0.00316    0.00216
 24 Cu    0.00536   -0.00430   -0.00527
 25 Cu   -0.00210   -0.00299   -0.00407
 26 Cu   -0.00437    0.00166   -0.00273
 27 Cu   -0.00643    0.00163   -0.00133
 28 Cu   -0.00049   -0.00027   -0.00463
 29 Cu    0.00065   -0.00418    0.00215
 30 Cu    0.00470    0.00165   -0.00099
 31 Cu   -0.00426   -0.00096    0.00405
 32 Cu    0.00122   -0.00036   -0.00021
 33 Cu    0.00738   -0.00207    0.00295
 34 Cu    0.00797    0.00442   -0.00529
 35 Cu    0.00651    0.00213   -0.00758
 36 Cu    0.01050   -0.00189    0.00994
 37 Cu    0.01270   -0.00129    0.00030
 38 Cu    0.01106    0.00416    0.00227
 39 Cu    0.00446    0.00298    0.00434
 40 Cu    0.01907   -0.00177    0.00375
 41 Cu    0.00804   -0.00813    0.00788
 42 Cu    0.00279    0.00911    0.01396
 43 Cu    0.00600   -0.00039    0.00631
 44 Cu    0.00176   -0.00039    0.01039
 45 Cu    0.00489   -0.01338    0.00701
 46 Cu    0.00326    0.00923    0.00096
 47 Cu    0.01367    0.00149    0.00180
 48 Cu   -0.00356    0.01139   -0.00565
 49 Cu   -0.00331    0.00055   -0.00898
 50 Cu   -0.01505   -0.00154   -0.00462
 51 Cu   -0.00205   -0.00728   -0.00001
 52 Cu   -0.00733    0.00712   -0.01048
 53 Cu   -0.01832    0.00169   -0.00400
 54 Cu   -0.00620    0.00019   -0.00672
 55 Cu   -0.00220   -0.00800   -0.01677
 56 Cu   -0.01225    0.00193   -0.00063
 57 Cu   -0.01116    0.00190   -0.00972
 58 Cu   -0.00504   -0.00277   -0.00443
 59 Cu   -0.01063   -0.00480   -0.00275
 60 Cu   -0.00703    0.00276   -0.00400
 61 Cu   -0.00181    0.00032   -0.00063
 62 Cu   -0.00677   -0.00199    0.00678
 63 Cu   -0.00790   -0.00504    0.00421
 64 Cu   -0.00056    0.00416   -0.00358
 65 Cu    0.00064    0.00014    0.00302
 66 Cu    0.00478    0.00099   -0.00568
 67 Cu   -0.00473   -0.00156   -0.00022
 68 Cu    0.00258    0.00316    0.00216
 69 Cu   -0.00470    0.00401    0.00326
 70 Cu    0.00685   -0.00139   -0.00063
 71 Cu    0.00507   -0.00186    0.00048
 72 Cu   -0.00643    0.00163   -0.00133
 73 Cu   -0.00437    0.00166   -0.00273
 74 Cu   -0.00210   -0.00299   -0.00407
 75 Cu    0.00536   -0.00430   -0.00527
 76 Cu   -0.00426   -0.00096    0.00405
 77 Cu    0.00470    0.00165   -0.00099
 78 Cu    0.00065   -0.00418    0.00215
 79 Cu   -0.00049   -0.00027   -0.00463
 80 Cu    0.00651    0.00213   -0.00758
 81 Cu    0.00797    0.00442   -0.00529
 82 Cu    0.00738   -0.00207    0.00295
 83 Cu    0.00122   -0.00036   -0.00021
 84 Cu    0.00446    0.00297    0.00434
 85 Cu    0.01106    0.00416    0.00227
 86 Cu    0.01270   -0.00129    0.00030
 87 Cu    0.01050   -0.00189    0.00994
 88 Cu    0.00600   -0.00039    0.00631
 89 Cu    0.00279    0.00911    0.01396
 90 Cu    0.00804   -0.00813    0.00788
 91 Cu    0.01907   -0.00177    0.00375
 92 Cu    0.01367    0.00149    0.00180
 93 Cu    0.00326    0.00923    0.00096
 94 Cu    0.00489   -0.01338    0.00701
 95 Cu    0.00176   -0.00039    0.01039
 96 Cl   -0.01136   -0.00046    0.01406
 97 Cl   -0.01136   -0.00046    0.01406
 98 Cl    0.01073    0.00014   -0.00774
 99 Cl    0.01073    0.00014   -0.00774

Timing:                                      incl.     excl.
-------------------------------------------------------------------
Density initialized from wave functions:   519.504   519.502   0.3% |
 Symmetrize density:                         0.002     0.002   0.0% |
Forces:                                   3617.868  3617.868   2.3% ||
Hamiltonian:                               638.686     0.903   0.0% |
 Atomic:                                    24.638     5.127   0.0% |
  XC Correction:                            19.511    19.511   0.0% |
 Calculate atomic Hamiltonians:            244.288   244.288   0.2% |
 Communicate:                               14.201    14.201   0.0% |
 Initialize Hamiltonian:                     0.001     0.001   0.0% |
 Poisson:                                    0.417     0.417   0.0% |
 XC 3D grid:                               354.238    51.590   0.0% |
  VdW-DF integral:                         302.648     2.263   0.0% |
   Convolution:                             30.408    30.408   0.0% |
   FFT:                                     10.836    10.836   0.0% |
   gather:                                  91.794    91.794   0.1% |
   hmm1:                                    14.133    14.133   0.0% |
   hmm2:                                    14.290    14.290   0.0% |
   iFFT:                                    10.936    10.936   0.0% |
   potential:                              120.388     1.171   0.0% |
    collect:                                14.620    14.620   0.0% |
    p1:                                     60.575    60.575   0.0% |
    p2:                                     22.465    22.465   0.0% |
    sum:                                    21.558    21.558   0.0% |
   splines:                                  7.599     7.599   0.0% |
LCAO initialization:                       948.756     0.631   0.0% |
 LCAO eigensolver:                          25.939     0.003   0.0% |
  Blacs Orbital Layouts:                     2.844     0.001   0.0% |
   General diagonalize:                      2.819     2.819   0.0% |
   Redistribute coefs:                       0.018     0.018   0.0% |
   Send coefs to domains:                    0.007     0.007   0.0% |
  Calculate projections:                     0.024     0.024   0.0% |
  Distribute overlap matrix:                22.527     0.002   0.0% |
   Scalapack redistribute:                   0.033     0.033   0.0% |
   blocked summation:                       22.492    22.492   0.0% |
  Potential matrix:                          0.200     0.200   0.0% |
  SparseAtomicCorrection:                    0.025     0.025   0.0% |
  Sum over cells:                            0.316     0.316   0.0% |
 LCAO to grid:                             915.693   915.693   0.6% |
 Set positions (LCAO WFS):                   6.493     0.022   0.0% |
  Basic WFS set positions:                   0.006     0.006   0.0% |
  Basis functions set positions:             0.001     0.001   0.0% |
  P tci:                                     0.000     0.000   0.0% |
  ST tci:                                    1.098     1.098   0.0% |
  Scalapack redistribute:                    0.083     0.083   0.0% |
  blocked summation:                         4.954     4.954   0.0% |
  mktci:                                     0.328     0.328   0.0% |
PWDescriptor:                                0.998     0.998   0.0% |
Redistribute:                                0.049     0.049   0.0% |
SCF-cycle:                               152362.841   869.274   0.5% |
 Davidson:                               131857.656 42330.256  26.6% |----------|
  Apply H:                                7820.493  7665.939   4.8% |-|
   HMM T:                                  154.554   154.554   0.1% |
  Subspace diag:                         19748.167     0.148   0.0% |
   calc_h_matrix:                        12021.493  4297.566   2.7% ||
    Apply H:                              7723.927  7561.287   4.8% |-|
     HMM T:                                162.640   162.640   0.1% |
   diagonalize:                            411.068   411.068   0.3% |
   rotate_psi:                            7315.458  7315.458   4.6% |-|
  calc. matrices:                        43962.731 28848.839  18.1% |------|
   Apply H:                              15113.892 14817.647   9.3% |---|
    HMM T:                                 296.246   296.246   0.2% |
  diagonalize:                            3540.054  3540.054   2.2% ||
  rotate_psi:                            14455.955 14455.955   9.1% |---|
 Density:                                 8558.863     0.045   0.0% |
  Atomic density matrices:                  20.217    20.217   0.0% |
  Mix:                                    4469.551  4469.551   2.8% ||
  Multipole moments:                         1.431     1.431   0.0% |
  Pseudo density:                         4067.619  4067.580   2.6% ||
   Symmetrize density:                       0.039     0.039   0.0% |
 Hamiltonian:                            10110.073    14.673   0.0% |
  Atomic:                                  405.710    93.048   0.1% |
   XC Correction:                          312.662   312.662   0.2% |
  Calculate atomic Hamiltonians:          3928.671  3928.671   2.5% ||
  Communicate:                             219.385   219.385   0.1% |
  Poisson:                                   6.907     6.907   0.0% |
  XC 3D grid:                             5534.727   821.706   0.5% |
   VdW-DF integral:                       4713.022    35.938   0.0% |
    Convolution:                           482.245   482.245   0.3% |
    FFT:                                   174.812   174.812   0.1% |
    gather:                               1472.574  1472.574   0.9% |
    hmm1:                                  226.934   226.934   0.1% |
    hmm2:                                  225.998   225.998   0.1% |
    iFFT:                                  175.280   175.280   0.1% |
    potential:                            1919.232    19.260   0.0% |
     collect:                              235.472   235.472   0.1% |
     p1:                                   970.617   970.617   0.6% |
     p2:                                   355.761   355.761   0.2% |
     sum:                                  338.121   338.121   0.2% |
    splines:                                 0.008     0.008   0.0% |
 Orthonormalize:                           966.975     0.018   0.0% |
  calc_s_matrix:                           126.143   126.143   0.1% |
  inverse-cholesky:                         20.398    20.398   0.0% |
  projections:                             606.679   606.679   0.4% |
  rotate_psi_s:                            213.737   213.737   0.1% |
Set symmetry:                                0.002     0.002   0.0% |
Other:                                     995.481   995.481   0.6% |
-------------------------------------------------------------------
Total:                                             159084.186 100.0%

Memory usage: 2.45 GiB
Date: Mon Oct 17 05:24:43 2022
