
  ___ ___ ___ _ _ _  
 |   |   |_  | | | | 
 | | | | | . | | | | 
 |__ |  _|___|_____|  22.1.0
 |___|_|             

User:   thorkong@node028.cluster
Date:   Mon Oct 17 14:35:19 2022
Arch:   x86_64
Pid:    75006
Python: 3.10.5
gpaw:   /groups/kemi/thorkong/miniconda3/envs/gpaw22/lib/python3.10/site-packages/gpaw
_gpaw:  /groups/kemi/thorkong/miniconda3/envs/gpaw22/lib/python3.10/site-packages/
        _gpaw.cpython-310-x86_64-linux-gnu.so
ase:    /groups/kemi/thorkong/miniconda3/envs/gpaw22/lib/python3.10/site-packages/ase (version 3.22.1)
numpy:  /groups/kemi/thorkong/miniconda3/envs/gpaw22/lib/python3.10/site-packages/numpy (version 1.23.0)
scipy:  /groups/kemi/thorkong/miniconda3/envs/gpaw22/lib/python3.10/site-packages/scipy (version 1.8.1)
libxc:  5.2.3
units:  Angstrom and eV
cores: 32
OpenMP: True
OMP_NUM_THREADS: 1

Input parameters:
  basis: dzp
  kpts: [4 4 1]
  mode: {ecut: 600.0,
         name: pw}
  xc: BEEF-vdW

System changes: positions, numbers, cell, pbc, initial_charges, initial_magmoms 

Initialize ...

Cu-setup:
  name: Copper
  id: f1c4d45d90492f1bbfdcb091e8418fdf
  Z: 29.0
  valence: 11
  core: 18
  charge: 0.0
  file: /groups/kemi/thorkong/miniconda3/envs/gpaw22/share/gpaw/Cu.PBE.gz
  compensation charges: gauss, rc=0.33, lmax=2
  cutoffs: 2.06(filt), 2.43(core),
  valence states:
                energy  radius
    4s(1.00)    -4.609   1.164
    4p(0.00)    -0.698   1.164
    3d(10.00)    -5.039   1.058
    *s          22.603   1.164
    *p          26.513   1.164
    *d          22.172   1.058

  LCAO basis set for Cu:
    Name: dzp
    File: /groups/kemi/thorkong/miniconda3/envs/gpaw22/share/gpaw/Cu.dzp.basis.gz
    Number of radial functions: 5
    Number of spherical harmonics: 15
      l=0, rc=8.9688 Bohr: 4s-sz confined orbital
      l=2, rc=5.1719 Bohr: 3d-sz confined orbital
      l=0, rc=5.3281 Bohr: 4s-dz split-valence wave
      l=2, rc=3.1406 Bohr: 3d-dz split-valence wave
      l=1, rc=8.9688 Bohr: p-type Gaussian polarization

Cl-setup:
  name: Chlorine
  id: 726897f06f34e53cf8e33b5885a02604
  Z: 17.0
  valence: 7
  core: 10
  charge: 0.0
  file: /groups/kemi/thorkong/miniconda3/envs/gpaw22/share/gpaw/Cl.PBE.gz
  compensation charges: gauss, rc=0.25, lmax=2
  cutoffs: 1.40(filt), 1.49(core),
  valence states:
                energy  radius
    3s(2.00)   -20.689   0.794
    3p(5.00)    -8.594   0.794
    *s           6.523   0.794
    *p          18.617   0.794
    *d           0.000   0.794

  LCAO basis set for Cl:
    Name: dzp
    File: /groups/kemi/thorkong/miniconda3/envs/gpaw22/share/gpaw/Cl.dzp.basis.gz
    Number of radial functions: 5
    Number of spherical harmonics: 13
      l=0, rc=5.1719 Bohr: 3s-sz confined orbital
      l=1, rc=6.2656 Bohr: 3p-sz confined orbital
      l=0, rc=2.8281 Bohr: 3s-dz split-valence wave
      l=1, rc=3.5156 Bohr: 3p-dz split-valence wave
      l=2, rc=6.2656 Bohr: d-type Gaussian polarization

Reference energy: -2506488.095795

Spin-paired calculation

Convergence criteria:
 Maximum [total energy] change in last 3 cyles: 0.0005 eV / electron
 Maximum integral of absolute [dens]ity change: 0.0001 electrons / valence electron
 Maximum integral of absolute [eigenst]ate change: 4e-08 eV^2 / valence electron
 Maximum number of scf [iter]ations: 333
 (Square brackets indicate name in SCF output, whereas a 'c' in
 the SCF output indicates the quantity has converged.)

Symmetries present (total): 1

  ( 1  0  0)
  ( 0  1  0)
  ( 0  0  1)

16 k-points: 4 x 4 x 1 Monkhorst-Pack grid
8 k-points in the irreducible part of the Brillouin zone
       k-points in crystal coordinates                weights
   0:     0.12500000   -0.37500000    0.00000000          2/16
   1:     0.12500000   -0.12500000    0.00000000          2/16
   2:     0.12500000    0.12500000    0.00000000          2/16
   3:     0.12500000    0.37500000    0.00000000          2/16
   4:     0.37500000   -0.37500000    0.00000000          2/16
   5:     0.37500000   -0.12500000    0.00000000          2/16
   6:     0.37500000    0.12500000    0.00000000          2/16
   7:     0.37500000    0.37500000    0.00000000          2/16

Wave functions: Plane wave expansion
  Cutoff energy: 600.000 eV
  Number of coefficients (min, max): 63070, 63184
  Pulay-stress correction: 0.000000 eV/Ang^3 (de/decut=0.000000)
  Using FFTW library
  ScaLapack parameters: grid=2x2, blocksize=64
  Wavefunction extrapolation:
    Improved wavefunction reuse through dual PAW basis 

Occupation numbers: Fermi-Dirac: width=0.1000 eV
 

Eigensolver
   Davidson(niter=2) 

Densities:
  Coarse grid: 45*48*175 grid
  Fine grid: 90*96*350 grid
  Total Charge: 0.000000 

Density mixing:
  Method: separate
  Backend: pulay
  Linear mixing parameter: 0.05
  Mixing with 5 old densities
  Damping of long wave oscillations: 50 

Hamiltonian:
  XC and Coulomb potentials evaluated on a 90*96*350 grid
  Using the BEEF-vdW Exchange-Correlation functional
  External potential:
    NoExternalPotential
 

XC parameters: BEEF-vdW with 2 nearest neighbor stencil

Memory estimate:
  Process memory now: 255.37 MiB
  Calculator: 850.54 MiB
    Density: 47.05 MiB
      Arrays: 18.85 MiB
      Localized functions: 20.94 MiB
      Mixer: 7.25 MiB
    Hamiltonian: 12.84 MiB
      Arrays: 12.33 MiB
      XC: 0.00 MiB
      Poisson: 0.00 MiB
      vbar: 0.51 MiB
    Wavefunctions: 790.66 MiB
      Arrays psit_nG: 372.15 MiB
      Eigensolver: 399.71 MiB
      Projections: 1.55 MiB
      Projectors: 2.41 MiB
      PW-descriptor: 14.84 MiB

Total number of cores used: 32
Parallelization over k-points: 8
Domain decomposition: 1 x 1 x 4
                      2 x 2 x 8 (xc only)

Number of atoms: 60
Number of atomic orbitals: 888
Number of bands in calculation: 386
Number of valence electrons: 636
Bands to converge: occupied

... initialized

Initializing position-dependent things.

Density initialized from atomic densities
Creating initial wave functions:
  386 bands from LCAO basis set

                                     
                                     
                                     
                                     
                         Cl          
                Cl                   
                                     
        Cl Cu    Cu     Cu           
               Cu    Cu     Cu       
         Cu    Cu     Cu             
       Cu    Cu     Cu    Cu         
              Cu                     
           CCu   CCu    Cu           
         Cu    CCu   CCu    Cu       
                                     
       Cu    CCu    Cu    Cu         
           Cu    CCu    Cu           
               Cu    Cu     Cu       
         Cu     Cu    Cu             
       Cu    Cu     Cu    Cu         
              Cu    Cu               
           Cu     Cu    Cu           
                   Cl                
                                     
                       Cl            
                                     
                                     
                                     
                                     

Positions:
   0 Cu     1.851874    1.842086   10.044767    ( 0.0000,  0.0000,  0.0000)
   1 Cu     0.572048    0.518337   11.854739    ( 0.0000,  0.0000,  0.0000)
   2 Cu     3.208369    0.549454   11.826759    ( 0.0000,  0.0000,  0.0000)
   3 Cu     1.885044    1.836608   13.699605    ( 0.0000,  0.0000,  0.0000)
   4 Cu     0.579320    0.526826   15.560947    ( 0.0000,  0.0000,  0.0000)
   5 Cu     3.185437    0.522508   15.555968    ( 0.0000,  0.0000,  0.0000)
   6 Cu     1.901068    1.854575   17.424612    ( 0.0000,  0.0000,  0.0000)
   7 Cu     0.575906    0.561899   19.206760    ( 0.0000,  0.0000,  0.0000)
   8 Cu     3.188310    0.488633   19.210481    ( 0.0000,  0.0000,  0.0000)
   9 Cu     0.574574    3.144633   11.846476    ( 0.0000,  0.0000,  0.0000)
  10 Cu     0.575916    3.143785   15.552326    ( 0.0000,  0.0000,  0.0000)
  11 Cu     0.546349    3.145891   19.206137    ( 0.0000,  0.0000,  0.0000)
  12 Cu     7.147069    1.821677   10.043621    ( 0.0000,  0.0000,  0.0000)
  13 Cu     5.794000    0.540777   11.820405    ( 0.0000,  0.0000,  0.0000)
  14 Cu     7.114080    1.831917   13.694773    ( 0.0000,  0.0000,  0.0000)
  15 Cu     5.808982    0.523918   15.556714    ( 0.0000,  0.0000,  0.0000)
  16 Cu     7.113100    1.827061   17.396972    ( 0.0000,  0.0000,  0.0000)
  17 Cu     5.807880    0.526790   19.217827    ( 0.0000,  0.0000,  0.0000)
  18 Cu     4.494064    1.763231    9.932089    ( 0.0000,  0.0000,  0.0000)
  19 Cu     4.496146    4.525263    9.931071    ( 0.0000,  0.0000,  0.0000)
  20 Cu     3.207669    3.147945   11.830838    ( 0.0000,  0.0000,  0.0000)
  21 Cu     5.791432    3.139321   11.831411    ( 0.0000,  0.0000,  0.0000)
  22 Cu     4.501104    1.833097   13.705422    ( 0.0000,  0.0000,  0.0000)
  23 Cu     4.500286    4.451342   13.700374    ( 0.0000,  0.0000,  0.0000)
  24 Cu     3.191019    3.143173   15.550169    ( 0.0000,  0.0000,  0.0000)
  25 Cu     5.806714    3.142761   15.552225    ( 0.0000,  0.0000,  0.0000)
  26 Cu     4.483820    1.848780   17.430757    ( 0.0000,  0.0000,  0.0000)
  27 Cu     4.483576    4.446716   17.420218    ( 0.0000,  0.0000,  0.0000)
  28 Cu     3.195113    3.070202   19.320757    ( 0.0000,  0.0000,  0.0000)
  29 Cu     5.840799    3.127025   19.209886    ( 0.0000,  0.0000,  0.0000)
  30 Cu     1.850636    4.467419   10.041562    ( 0.0000,  0.0000,  0.0000)
  31 Cu     1.883456    7.067453   10.032493    ( 0.0000,  0.0000,  0.0000)
  32 Cu     0.578168    5.767618   11.853682    ( 0.0000,  0.0000,  0.0000)
  33 Cu     3.207330    5.746015   11.820678    ( 0.0000,  0.0000,  0.0000)
  34 Cu     1.884398    4.451712   13.698510    ( 0.0000,  0.0000,  0.0000)
  35 Cu     1.882140    7.070634   13.694193    ( 0.0000,  0.0000,  0.0000)
  36 Cu     0.577138    5.762455   15.555937    ( 0.0000,  0.0000,  0.0000)
  37 Cu     3.190200    5.761333   15.545038    ( 0.0000,  0.0000,  0.0000)
  38 Cu     1.899950    4.455283   17.419419    ( 0.0000,  0.0000,  0.0000)
  39 Cu     1.897387    7.053708   17.430112    ( 0.0000,  0.0000,  0.0000)
  40 Cu     0.544416    5.772752   19.207193    ( 0.0000,  0.0000,  0.0000)
  41 Cu     3.197353    5.832220   19.317966    ( 0.0000,  0.0000,  0.0000)
  42 Cu     7.144990    4.448863   10.045121    ( 0.0000,  0.0000,  0.0000)
  43 Cu     7.115261    7.033008   10.044024    ( 0.0000,  0.0000,  0.0000)
  44 Cu     5.790284    5.740371   11.826573    ( 0.0000,  0.0000,  0.0000)
  45 Cu     7.115409    4.450638   13.698320    ( 0.0000,  0.0000,  0.0000)
  46 Cu     7.111993    7.067752   13.689826    ( 0.0000,  0.0000,  0.0000)
  47 Cu     5.806194    5.757852   15.551058    ( 0.0000,  0.0000,  0.0000)
  48 Cu     7.116689    4.449777   17.404260    ( 0.0000,  0.0000,  0.0000)
  49 Cu     7.119110    7.076103   17.395949    ( 0.0000,  0.0000,  0.0000)
  50 Cu     5.839650    5.752596   19.206190    ( 0.0000,  0.0000,  0.0000)
  51 Cu     4.502840    7.106124   10.040718    ( 0.0000,  0.0000,  0.0000)
  52 Cu     4.505854    7.072213   13.694900    ( 0.0000,  0.0000,  0.0000)
  53 Cu     4.482985    7.045347   17.423899    ( 0.0000,  0.0000,  0.0000)
  54 Cl     3.111134    4.453599   21.202893    ( 0.0000,  0.0000,  0.0000)
  55 Cl     4.580310    3.143724    8.048163    ( 0.0000,  0.0000,  0.0000)
  56 Cl     1.867046    5.767436    8.237027    ( 0.0000,  0.0000,  0.0000)
  57 Cl     0.561128    1.853895   21.006449    ( 0.0000,  0.0000,  0.0000)
  58 Cl     5.840224    7.039810   21.008038    ( 0.0000,  0.0000,  0.0000)
  59 Cl     7.093286    0.367959    8.057112    ( 0.0000,  0.0000,  0.0000)

Unit cell:
           periodic     x           y           z      points  spacing
  1. axis:    yes    7.851007    0.000000    0.000000    45     0.1655
  2. axis:    yes    2.617002    7.851007    0.000000    48     0.1636
  3. axis:    yes    0.000000    0.000000   30.683867   175     0.1753

  Lengths:   7.851007   8.275688  30.683867
  Angles:   90.000000  90.000000  71.565053

Effective grid spacing dv^(1/3) = 0.1710

     iter     time        total  log10-change:
                         energy  eigst   dens
iter:   1 14:40:45 -4412.297258
iter:   2 14:41:58 -4340.205115  -0.37  -0.99
iter:   3 14:43:00 -4320.219741  -1.26  -1.25
iter:   4 14:43:52 -4317.052614  -1.62  -1.34
iter:   5 14:44:45 -4313.766766  -1.62  -1.44
iter:   6 14:45:31 -4309.541586  -1.70  -1.53
iter:   7 14:46:19 -4309.585678  -2.23  -1.72
iter:   8 14:47:07 -4308.192527  -2.50  -1.73
iter:   9 14:48:29 -4307.856809  -2.30  -1.98
iter:  10 14:49:28 -4307.461526  -2.93  -2.23
iter:  11 14:50:19 -4307.200090  -3.16  -2.38
iter:  12 14:51:06 -4307.201036c -3.93  -2.68
iter:  13 14:51:50 -4307.198540c -3.87  -2.83
iter:  14 14:52:34 -4307.177867c -4.13  -2.89
iter:  15 14:53:18 -4307.174925c -4.50  -3.11
iter:  16 14:54:02 -4307.174178c -4.86  -3.33
iter:  17 14:54:46 -4307.172302c -5.13  -3.36
iter:  18 14:55:30 -4307.172098c -5.95  -3.43
iter:  19 14:56:14 -4307.172667c -5.16  -3.46
iter:  20 14:56:58 -4307.171325c -5.68  -3.67
iter:  21 14:57:42 -4307.170826c -5.71  -3.82
iter:  22 14:58:26 -4307.170907c -6.41  -4.02c
iter:  23 14:59:12 -4307.171036c -6.54  -4.14c
iter:  24 14:59:58 -4307.170949c -6.85  -4.26c
iter:  25 15:00:47 -4307.171019c -7.43c -4.33c

Converged after 25 iterations.

Dipole moment: (-2.987698, -36.726044, 0.092112) |e|*Ang

Energy contributions relative to reference atoms: (reference = -2506488.095795)

Kinetic:       +462.300750
Potential:     -497.419190
External:        +0.000000
XC:            -4270.958452
Entropy (-ST):   -0.613699
Local:           -0.787278
--------------------------
Free energy:   -4307.477869
Extrapolated:  -4307.171019

Showing only first 2 kpts
 Kpt  Band  Eigenvalues  Occupancy
  0   316     -0.95430    1.95417
  0   317     -0.76777    1.73697
  0   318     -0.58647    1.03730
  0   319     -0.55222    0.86686

  1   316     -0.89046    1.91497
  1   317     -0.77294    1.74855
  1   318     -0.72639    1.62725
  1   319     -0.70372    1.55357


Fermi level: -0.57901

No gap

Forces in eV/Ang:
  0 Cu    0.14044    0.04980    0.02481
  1 Cu    0.00936   -0.04796    0.11962
  2 Cu   -0.03232    0.00684   -0.05967
  3 Cu    0.00096   -0.03141    0.06142
  4 Cu   -0.00947   -0.00184   -0.02141
  5 Cu    0.01207    0.00468    0.03608
  6 Cu    0.11450   -0.06364   -0.19927
  7 Cu   -0.16156   -0.63642   -0.29074
  8 Cu    0.15263    0.61677   -0.29256
  9 Cu   -0.00710    0.00107   -0.00701
 10 Cu   -0.00698    0.00096    0.00386
 11 Cu    0.00798    0.69401   -0.28668
 12 Cu   -0.01303    0.01872   -0.50839
 13 Cu    0.02236   -0.02013    0.13871
 14 Cu    0.01262    0.02773   -0.00016
 15 Cu   -0.00239    0.00525   -0.07118
 16 Cu   -0.06262    0.01033   -0.21823
 17 Cu    0.00022   -0.00069   -0.13143
 18 Cu   -0.13529    0.13936   -0.10703
 19 Cu    0.17081   -0.14221   -0.09632
 20 Cu   -0.05325    0.03290   -0.02208
 21 Cu    0.05263   -0.02264   -0.01675
 22 Cu   -0.01518   -0.00431    0.00749
 23 Cu    0.00553    0.01449   -0.02871
 24 Cu    0.03180    0.03924   -0.01928
 25 Cu   -0.02545   -0.02593   -0.04111
 26 Cu   -0.04621   -0.06192    0.06231
 27 Cu    0.06646    0.04506    0.03594
 28 Cu    0.20325    0.17281    0.02025
 29 Cu   -0.22107    0.04954   -0.10099
 30 Cu    0.02249   -0.57669    0.04921
 31 Cu    0.00451    0.39422    0.82845
 32 Cu   -0.00858    0.04010    0.20248
 33 Cu   -0.00668    0.02975    0.18481
 34 Cu   -0.00972   -0.03129   -0.02745
 35 Cu    0.00652    0.00651    0.00928
 36 Cu    0.02456    0.01675   -0.07295
 37 Cu   -0.02167   -0.02933   -0.03297
 38 Cu   -0.07379   -0.04993    0.01916
 39 Cu    0.05012    0.05981    0.07437
 40 Cu    0.22069   -0.04611   -0.08953
 41 Cu   -0.21502   -0.16322    0.02619
 42 Cu   -0.18570   -0.08520    0.02388
 43 Cu   -0.29744    0.00510    0.07549
 44 Cu    0.01188   -0.00856   -0.05882
 45 Cu    0.00053    0.02336    0.08393
 46 Cu   -0.02193   -0.00774    0.01842
 47 Cu    0.00342   -0.00640    0.05725
 48 Cu    0.01264    0.00317    0.03122
 49 Cu    0.07113   -0.01323   -0.21371
 50 Cu   -0.00707   -0.68780   -0.30508
 51 Cu    0.29512    0.04803    0.06810
 52 Cu    0.01313    0.00315    0.05533
 53 Cu   -0.11960    0.07392   -0.20332
 54 Cl    0.03941    0.03594   -0.21880
 55 Cl    0.00030    0.01032    0.23884
 56 Cl   -0.13402   -3.95478   -0.86053
 57 Cl   -0.16656   -0.03830    1.17232
 58 Cl    0.15626    0.00667    1.17382
 59 Cl    0.12149    4.07461   -0.27150

System changes: positions 

Initializing position-dependent things.

Density initialized from wave functions
                                     
                                     
                                     
                                     
                         Cl          
                                     
                Cl                   
        Cl Cu    Cu     Cu           
               Cu    Cu     Cu       
         Cu    Cu     Cu             
             Cu    Cu     Cu         
       Cu     Cu    Cu               
           Cu    CCu    Cu           
         Cu    Cu    CCu    Cu       
                                     
       Cu    CCu    Cu    Cu         
           Cu    CCu    Cu           
               Cu    Cu     Cu       
         Cu    Cu     Cu             
             Cu     Cu    Cu         
       Cu     Cu    Cu               
           Cu Cl  Cu    Cu           
                   Cl                
                                     
                       Cl            
                                     
                                     
                                     
                                     

Positions:
   0 Cu     1.858749    1.844524   10.045982    ( 0.0000,  0.0000,  0.0000)
   1 Cu     0.572506    0.515989   11.860595    ( 0.0000,  0.0000,  0.0000)
   2 Cu     3.206787    0.549789   11.823838    ( 0.0000,  0.0000,  0.0000)
   3 Cu     1.885091    1.835070   13.702612    ( 0.0000,  0.0000,  0.0000)
   4 Cu     0.578856    0.526736   15.559899    ( 0.0000,  0.0000,  0.0000)
   5 Cu     3.186028    0.522737   15.557734    ( 0.0000,  0.0000,  0.0000)
   6 Cu     1.906673    1.851459   17.414857    ( 0.0000,  0.0000,  0.0000)
   7 Cu     0.567997    0.530744   19.192527    ( 0.0000,  0.0000,  0.0000)
   8 Cu     3.195782    0.518827   19.196159    ( 0.0000,  0.0000,  0.0000)
   9 Cu     0.574226    3.144685   11.846133    ( 0.0000,  0.0000,  0.0000)
  10 Cu     0.575574    3.143832   15.552515    ( 0.0000,  0.0000,  0.0000)
  11 Cu     0.546739    3.179866   19.192103    ( 0.0000,  0.0000,  0.0000)
  12 Cu     7.146431    1.822593   10.018733    ( 0.0000,  0.0000,  0.0000)
  13 Cu     5.795095    0.539792   11.827196    ( 0.0000,  0.0000,  0.0000)
  14 Cu     7.114698    1.833274   13.694765    ( 0.0000,  0.0000,  0.0000)
  15 Cu     5.808865    0.524175   15.553230    ( 0.0000,  0.0000,  0.0000)
  16 Cu     7.110035    1.827567   17.386289    ( 0.0000,  0.0000,  0.0000)
  17 Cu     5.807891    0.526756   19.211393    ( 0.0000,  0.0000,  0.0000)
  18 Cu     4.487441    1.770053    9.926849    ( 0.0000,  0.0000,  0.0000)
  19 Cu     4.504508    4.518301    9.926356    ( 0.0000,  0.0000,  0.0000)
  20 Cu     3.205062    3.149556   11.829757    ( 0.0000,  0.0000,  0.0000)
  21 Cu     5.794008    3.138213   11.830591    ( 0.0000,  0.0000,  0.0000)
  22 Cu     4.500361    1.832886   13.705789    ( 0.0000,  0.0000,  0.0000)
  23 Cu     4.500557    4.452051   13.698969    ( 0.0000,  0.0000,  0.0000)
  24 Cu     3.192576    3.145094   15.549225    ( 0.0000,  0.0000,  0.0000)
  25 Cu     5.805468    3.141492   15.550212    ( 0.0000,  0.0000,  0.0000)
  26 Cu     4.481558    1.845749   17.433807    ( 0.0000,  0.0000,  0.0000)
  27 Cu     4.486829    4.448922   17.421978    ( 0.0000,  0.0000,  0.0000)
  28 Cu     3.205063    3.078662   19.321748    ( 0.0000,  0.0000,  0.0000)
  29 Cu     5.829976    3.129450   19.204942    ( 0.0000,  0.0000,  0.0000)
  30 Cu     1.851737    4.439188   10.043971    ( 0.0000,  0.0000,  0.0000)
  31 Cu     1.883677    7.086752   10.073049    ( 0.0000,  0.0000,  0.0000)
  32 Cu     0.577748    5.769581   11.863594    ( 0.0000,  0.0000,  0.0000)
  33 Cu     3.207003    5.747471   11.829725    ( 0.0000,  0.0000,  0.0000)
  34 Cu     1.883922    4.450180   13.697166    ( 0.0000,  0.0000,  0.0000)
  35 Cu     1.882459    7.070953   13.694647    ( 0.0000,  0.0000,  0.0000)
  36 Cu     0.578340    5.763275   15.552366    ( 0.0000,  0.0000,  0.0000)
  37 Cu     3.189139    5.759897   15.543424    ( 0.0000,  0.0000,  0.0000)
  38 Cu     1.896337    4.452839   17.420357    ( 0.0000,  0.0000,  0.0000)
  39 Cu     1.899841    7.056636   17.433753    ( 0.0000,  0.0000,  0.0000)
  40 Cu     0.555220    5.770494   19.202810    ( 0.0000,  0.0000,  0.0000)
  41 Cu     3.186827    5.824230   19.319248    ( 0.0000,  0.0000,  0.0000)
  42 Cu     7.135899    4.444692   10.046290    ( 0.0000,  0.0000,  0.0000)
  43 Cu     7.100700    7.033258   10.047720    ( 0.0000,  0.0000,  0.0000)
  44 Cu     5.790865    5.739952   11.823694    ( 0.0000,  0.0000,  0.0000)
  45 Cu     7.115435    4.451782   13.702429    ( 0.0000,  0.0000,  0.0000)
  46 Cu     7.110920    7.067373   13.690728    ( 0.0000,  0.0000,  0.0000)
  47 Cu     5.806362    5.757539   15.553860    ( 0.0000,  0.0000,  0.0000)
  48 Cu     7.117308    4.449932   17.405788    ( 0.0000,  0.0000,  0.0000)
  49 Cu     7.122592    7.075455   17.385487    ( 0.0000,  0.0000,  0.0000)
  50 Cu     5.839304    5.718925   19.191255    ( 0.0000,  0.0000,  0.0000)
  51 Cu     4.517287    7.108475   10.044052    ( 0.0000,  0.0000,  0.0000)
  52 Cu     4.506497    7.072367   13.697609    ( 0.0000,  0.0000,  0.0000)
  53 Cu     4.477130    7.048966   17.413946    ( 0.0000,  0.0000,  0.0000)
  54 Cl     3.113063    4.455358   21.192182    ( 0.0000,  0.0000,  0.0000)
  55 Cl     4.580325    3.144229    8.059855    ( 0.0000,  0.0000,  0.0000)
  56 Cl     1.860485    5.573833    8.194901    ( 0.0000,  0.0000,  0.0000)
  57 Cl     0.552974    1.852020   21.063838    ( 0.0000,  0.0000,  0.0000)
  58 Cl     5.847874    7.040137   21.065501    ( 0.0000,  0.0000,  0.0000)
  59 Cl     7.099233    0.567428    8.043821    ( 0.0000,  0.0000,  0.0000)

Unit cell:
           periodic     x           y           z      points  spacing
  1. axis:    yes    7.851007    0.000000    0.000000    45     0.1655
  2. axis:    yes    2.617002    7.851007    0.000000    48     0.1636
  3. axis:    yes    0.000000    0.000000   30.683867   175     0.1753

  Lengths:   7.851007   8.275688  30.683867
  Angles:   90.000000  90.000000  71.565053

Effective grid spacing dv^(1/3) = 0.1710

     iter     time        total  log10-change:
                         energy  eigst   dens
iter:   1 15:02:06 -4311.013450  -1.76
iter:   2 15:02:56 -4310.984061  -2.16  -2.07
iter:   3 15:03:45 -4308.758007  -2.70  -2.06
iter:   4 15:04:35 -4308.462186  -3.07  -2.48
iter:   5 15:05:26 -4308.424759  -3.45  -2.74
iter:   6 15:06:17 -4308.410501c -4.15  -2.91
iter:   7 15:07:09 -4308.400419c -3.69  -3.01
iter:   8 15:08:02 -4308.400643c -4.50  -3.29
iter:   9 15:08:52 -4308.392020c -4.12  -3.33
iter:  10 15:09:38 -4308.391552c -5.23  -3.54
iter:  11 15:10:25 -4308.390746c -5.73  -3.50
iter:  12 15:11:12 -4308.389314c -5.03  -3.62
iter:  13 15:11:58 -4308.389509c -5.40  -3.85
iter:  14 15:12:49 -4308.389231c -6.29  -3.88
iter:  15 15:13:39 -4308.389026c -5.99  -3.99
iter:  16 15:14:32 -4308.388948c -6.04  -4.21c
iter:  17 15:15:24 -4308.388896c -6.37  -4.27c
iter:  18 15:16:10 -4308.388884c -7.65c -4.46c

Converged after 18 iterations.

Dipole moment: (-6.432365, -31.548964, 0.087662) |e|*Ang

Energy contributions relative to reference atoms: (reference = -2506488.095795)

Kinetic:       +448.825031
Potential:     -486.841520
External:        +0.000000
XC:            -4269.324234
Entropy (-ST):   -0.600221
Local:           -0.748050
--------------------------
Free energy:   -4308.688995
Extrapolated:  -4308.388884

Showing only first 2 kpts
 Kpt  Band  Eigenvalues  Occupancy
  0   316     -1.04747    1.95668
  0   317     -0.84515    1.71316
  0   318     -0.67460    1.04083
  0   319     -0.64856    0.91088

  1   316     -0.96631    1.90504
  1   317     -0.84795    1.71998
  1   318     -0.80409    1.59689
  1   319     -0.79003    1.54973


Fermi level: -0.66643

No gap

Forces in eV/Ang:
  0 Cu    0.10763   -0.04152    0.03162
  1 Cu    0.03624    0.01689    0.10091
  2 Cu   -0.01051    0.02436   -0.01951
  3 Cu    0.00573   -0.02495    0.05950
  4 Cu   -0.01737   -0.00291   -0.03763
  5 Cu    0.01810    0.00619    0.00720
  6 Cu    0.03265   -0.02468   -0.11905
  7 Cu   -0.10257   -0.14251    0.13007
  8 Cu    0.09953    0.13244    0.12232
  9 Cu   -0.03899   -0.03139   -0.00173
 10 Cu   -0.00343    0.00608   -0.01261
 11 Cu    0.01143    0.16423    0.14558
 12 Cu    0.00560    0.10672   -0.34954
 13 Cu   -0.02369    0.02979    0.11693
 14 Cu    0.01059    0.02557    0.00049
 15 Cu   -0.00124    0.00368   -0.06977
 16 Cu   -0.02585    0.02003   -0.13059
 17 Cu    0.00019    0.00041   -0.08141
 18 Cu   -0.11939    0.06910   -0.05616
 19 Cu    0.12784   -0.05892   -0.05000
 20 Cu   -0.02779    0.01934    0.00442
 21 Cu    0.05618   -0.04133   -0.02296
 22 Cu   -0.01905    0.00154   -0.00476
 23 Cu    0.01179    0.00658   -0.02636
 24 Cu    0.03065    0.03738   -0.01561
 25 Cu   -0.02723   -0.01415   -0.03417
 26 Cu   -0.00766   -0.01974    0.00027
 27 Cu    0.01379    0.02396   -0.02116
 28 Cu    0.13839    0.14967    0.00480
 29 Cu   -0.13976   -0.02748   -0.06767
 30 Cu    0.01393   -0.49597    0.33477
 31 Cu   -0.00912   -0.02486   -0.44431
 32 Cu   -0.01967    0.00053    0.12048
 33 Cu    0.01484    0.00416    0.11285
 34 Cu   -0.00590   -0.03322   -0.01411
 35 Cu    0.00569    0.00794    0.01717
 36 Cu    0.03092    0.00989   -0.05938
 37 Cu   -0.02252   -0.02958   -0.02586
 38 Cu   -0.02298   -0.02674   -0.03675
 39 Cu    0.01087    0.01739    0.00635
 40 Cu    0.14059    0.02808   -0.05514
 41 Cu   -0.14632   -0.13514    0.00290
 42 Cu   -0.13328   -0.01895    0.02434
 43 Cu   -0.15633    0.00824    0.03805
 44 Cu   -0.00383   -0.02177   -0.02167
 45 Cu   -0.00744    0.01755    0.07368
 46 Cu   -0.03408   -0.00175    0.01997
 47 Cu   -0.00277   -0.01352    0.03602
 48 Cu    0.01288    0.00208   -0.05310
 49 Cu    0.03738   -0.02420   -0.12665
 50 Cu   -0.00645   -0.15875    0.13169
 51 Cu    0.15776    0.01452    0.02585
 52 Cu    0.02598    0.00190    0.05232
 53 Cu   -0.04210    0.03343   -0.12008
 54 Cl    0.03663    0.02780   -0.15861
 55 Cl   -0.00315    0.02094    0.15857
 56 Cl   -0.16704   -1.03774   -0.55689
 57 Cl   -0.18590   -0.02013    0.27445
 58 Cl    0.17187   -0.01181    0.27314
 59 Cl    0.16908    1.45102    0.32851

System changes: positions 

Initializing position-dependent things.

Density initialized from wave functions
                                     
                                     
                                     
                                     
                         Cl          
                                     
                Cl                   
        Cl Cu    Cu     Cu           
               Cu    Cu     Cu       
         Cu     Cu    Cu             
             Cu     Cu    Cu         
       Cu     Cu    Cu               
           Cu    CCu    Cu           
         Cu    Cu    CCu    Cu       
                                     
       Cu    CCu    Cu    Cu         
           Cu    CCu    Cu           
                     Cu     Cu       
         Cu    CCu    Cu             
             Cu     Cu    Cu         
       Cu     Cu    Cu               
           Cu Cl  Cu    Cu           
                   Cl                
                                     
                       Cl            
                                     
                                     
                                     
                                     

Positions:
   0 Cu     1.872160    1.837876   10.050155    ( 0.0000,  0.0000,  0.0000)
   1 Cu     0.577559    0.519087   11.873340    ( 0.0000,  0.0000,  0.0000)
   2 Cu     3.205742    0.553177   11.821892    ( 0.0000,  0.0000,  0.0000)
   3 Cu     1.885898    1.831946   13.710256    ( 0.0000,  0.0000,  0.0000)
   4 Cu     0.576505    0.526346   15.554818    ( 0.0000,  0.0000,  0.0000)
   5 Cu     3.188447    0.523557   15.558253    ( 0.0000,  0.0000,  0.0000)
   6 Cu     1.909723    1.848829   17.400646    ( 0.0000,  0.0000,  0.0000)
   7 Cu     0.555609    0.519373   19.215264    ( 0.0000,  0.0000,  0.0000)
   8 Cu     3.207861    0.529034   19.217812    ( 0.0000,  0.0000,  0.0000)
   9 Cu     0.568747    3.140179   11.845984    ( 0.0000,  0.0000,  0.0000)
  10 Cu     0.575183    3.144689   15.550656    ( 0.0000,  0.0000,  0.0000)
  11 Cu     0.548262    3.193528   19.217001    ( 0.0000,  0.0000,  0.0000)
  12 Cu     7.147417    1.837600    9.975920    ( 0.0000,  0.0000,  0.0000)
  13 Cu     5.791387    0.544340   11.841963    ( 0.0000,  0.0000,  0.0000)
  14 Cu     7.116034    1.836540   13.694837    ( 0.0000,  0.0000,  0.0000)
  15 Cu     5.808722    0.524627   15.544255    ( 0.0000,  0.0000,  0.0000)
  16 Cu     7.107223    1.830287   17.370695    ( 0.0000,  0.0000,  0.0000)
  17 Cu     5.807915    0.526825   19.201606    ( 0.0000,  0.0000,  0.0000)
  18 Cu     4.472273    1.777966    9.920330    ( 0.0000,  0.0000,  0.0000)
  19 Cu     4.520380    4.511885    9.920566    ( 0.0000,  0.0000,  0.0000)
  20 Cu     3.201840    3.151856   11.830703    ( 0.0000,  0.0000,  0.0000)
  21 Cu     5.801303    3.132619   11.827542    ( 0.0000,  0.0000,  0.0000)
  22 Cu     4.497850    1.833167   13.705001    ( 0.0000,  0.0000,  0.0000)
  23 Cu     4.502166    4.452787   13.695603    ( 0.0000,  0.0000,  0.0000)
  24 Cu     3.196511    3.149887   15.547264    ( 0.0000,  0.0000,  0.0000)
  25 Cu     5.801932    3.139835   15.545905    ( 0.0000,  0.0000,  0.0000)
  26 Cu     4.481117    1.843801   17.432962    ( 0.0000,  0.0000,  0.0000)
  27 Cu     4.487860    4.451712   17.418440    ( 0.0000,  0.0000,  0.0000)
  28 Cu     3.221986    3.097630   19.322149    ( 0.0000,  0.0000,  0.0000)
  29 Cu     5.813110    3.124816   19.196691    ( 0.0000,  0.0000,  0.0000)
  30 Cu     1.853411    4.376387   10.091182    ( 0.0000,  0.0000,  0.0000)
  31 Cu     1.882308    7.077605    9.997717    ( 0.0000,  0.0000,  0.0000)
  32 Cu     0.575055    5.769089   11.877966    ( 0.0000,  0.0000,  0.0000)
  33 Cu     3.209222    5.747645   11.843255    ( 0.0000,  0.0000,  0.0000)
  34 Cu     1.883215    4.445870   13.695537    ( 0.0000,  0.0000,  0.0000)
  35 Cu     1.883181    7.071997   13.696972    ( 0.0000,  0.0000,  0.0000)
  36 Cu     0.582417    5.764453   15.544903    ( 0.0000,  0.0000,  0.0000)
  37 Cu     3.186224    5.756080   15.540191    ( 0.0000,  0.0000,  0.0000)
  38 Cu     1.894095    4.449720   17.414827    ( 0.0000,  0.0000,  0.0000)
  39 Cu     1.900686    7.058276   17.433606    ( 0.0000,  0.0000,  0.0000)
  40 Cu     0.572210    5.775167   19.196189    ( 0.0000,  0.0000,  0.0000)
  41 Cu     3.168936    5.807204   19.319291    ( 0.0000,  0.0000,  0.0000)
  42 Cu     7.119459    4.443188   10.049434    ( 0.0000,  0.0000,  0.0000)
  43 Cu     7.082546    7.034365   10.052094    ( 0.0000,  0.0000,  0.0000)
  44 Cu     5.790148    5.736958   11.821427    ( 0.0000,  0.0000,  0.0000)
  45 Cu     7.114362    4.453962   13.711783    ( 0.0000,  0.0000,  0.0000)
  46 Cu     7.106353    7.067232   13.693325    ( 0.0000,  0.0000,  0.0000)
  47 Cu     5.805916    5.755695   15.558203    ( 0.0000,  0.0000,  0.0000)
  48 Cu     7.118972    4.450185   17.397746    ( 0.0000,  0.0000,  0.0000)
  49 Cu     7.126932    7.072180   17.370393    ( 0.0000,  0.0000,  0.0000)
  50 Cu     5.838481    5.705960   19.214426    ( 0.0000,  0.0000,  0.0000)
  51 Cu     4.535679    7.109873   10.046785    ( 0.0000,  0.0000,  0.0000)
  52 Cu     4.510029    7.072594   13.704311    ( 0.0000,  0.0000,  0.0000)
  53 Cu     4.472801    7.052702   17.399644    ( 0.0000,  0.0000,  0.0000)
  54 Cl     3.117747    4.458827   21.172585    ( 0.0000,  0.0000,  0.0000)
  55 Cl     4.579869    3.147080    8.079162    ( 0.0000,  0.0000,  0.0000)
  56 Cl     1.838480    5.481399    8.127407    ( 0.0000,  0.0000,  0.0000)
  57 Cl     0.528731    1.849682   21.086492    ( 0.0000,  0.0000,  0.0000)
  58 Cl     5.870255    7.038353   21.087946    ( 0.0000,  0.0000,  0.0000)
  59 Cl     7.121707    0.717306    8.094684    ( 0.0000,  0.0000,  0.0000)

Unit cell:
           periodic     x           y           z      points  spacing
  1. axis:    yes    7.851007    0.000000    0.000000    45     0.1655
  2. axis:    yes    2.617002    7.851007    0.000000    48     0.1636
  3. axis:    yes    0.000000    0.000000   30.683867   175     0.1753

  Lengths:   7.851007   8.275688  30.683867
  Angles:   90.000000  90.000000  71.565053

Effective grid spacing dv^(1/3) = 0.1710

     iter     time        total  log10-change:
                         energy  eigst   dens
iter:   1 15:17:24 -4310.027593  -1.81
iter:   2 15:18:07 -4309.754343  -2.61  -2.20
iter:   3 15:18:56 -4309.063116  -3.04  -2.28
iter:   4 15:19:43 -4308.782008  -2.71  -2.45
iter:   5 15:20:31 -4308.753237c -3.82  -2.91
iter:   6 15:21:26 -4308.731846c -4.29  -3.01
iter:   7 15:22:12 -4308.735918c -3.76  -3.12
iter:   8 15:23:08 -4308.733406c -4.73  -3.33
iter:   9 15:24:13 -4308.724037c -4.46  -3.39
iter:  10 15:25:09 -4308.722801c -5.21  -3.58
iter:  11 15:26:01 -4308.722003c -5.19  -3.63
iter:  12 15:26:48 -4308.721903c -5.94  -3.84
iter:  13 15:27:34 -4308.721984c -5.64  -3.93
iter:  14 15:28:22 -4308.721711c -6.00  -4.05c
iter:  15 15:29:07 -4308.721704c -6.65  -4.33c
iter:  16 15:29:55 -4308.721709c -7.19  -4.40c
iter:  17 15:30:44 -4308.721701c -7.32  -4.43c
iter:  18 15:31:34 -4308.721693c -7.05  -4.48c
iter:  19 15:32:23 -4308.721693c -8.09c -4.77c

Converged after 19 iterations.

Dipole moment: (-4.568495, -28.323867, 0.073345) |e|*Ang

Energy contributions relative to reference atoms: (reference = -2506488.095795)

Kinetic:       +446.954789
Potential:     -485.595804
External:        +0.000000
XC:            -4269.040673
Entropy (-ST):   -0.598116
Local:           -0.740947
--------------------------
Free energy:   -4309.020751
Extrapolated:  -4308.721693

Showing only first 2 kpts
 Kpt  Band  Eigenvalues  Occupancy
  0   316     -1.02944    1.95409
  0   317     -0.83063    1.70715
  0   318     -0.66757    1.06608
  0   319     -0.64011    0.92896

  1   316     -0.94406    1.89542
  1   317     -0.82615    1.69576
  1   318     -0.78936    1.58833
  1   319     -0.77912    1.55385


Fermi level: -0.65434

No gap

Forces in eV/Ang:
  0 Cu    0.03659   -0.13584    0.02820
  1 Cu   -0.06902   -0.04736   -0.07315
  2 Cu    0.00925    0.02224    0.04146
  3 Cu    0.01186   -0.00326    0.03196
  4 Cu   -0.01657   -0.00640   -0.03050
  5 Cu    0.01777    0.00922   -0.00741
  6 Cu   -0.01696   -0.02177    0.05425
  7 Cu   -0.02710   -0.06691    0.05836
  8 Cu    0.02704    0.06166    0.05619
  9 Cu   -0.10425   -0.09236    0.08051
 10 Cu    0.00325    0.00441   -0.02132
 11 Cu   -0.01134    0.06101    0.07030
 12 Cu    0.03380    0.41213    0.44700
 13 Cu    0.07245   -0.03667   -0.07889
 14 Cu    0.00085    0.02157    0.00311
 15 Cu   -0.00228    0.00514   -0.04226
 16 Cu    0.03748    0.01535   -0.00692
 17 Cu   -0.00041    0.00188   -0.06569
 18 Cu   -0.08064   -0.03586    0.06281
 19 Cu    0.02289    0.06690    0.05647
 20 Cu    0.06231   -0.04565    0.09620
 21 Cu    0.02892   -0.04069   -0.00139
 22 Cu   -0.01633    0.01626   -0.00940
 23 Cu    0.01736   -0.00640   -0.01437
 24 Cu    0.01731    0.01528   -0.01689
 25 Cu   -0.02088   -0.00391   -0.02508
 26 Cu   -0.03196   -0.02577   -0.02075
 27 Cu    0.02326    0.04215   -0.01893
 28 Cu    0.05630    0.00018   -0.10663
 29 Cu   -0.01186   -0.02971   -0.06581
 30 Cu    0.00710    0.14079   -0.27463
 31 Cu   -0.00815   -0.19561   -0.23784
 32 Cu    0.03169    0.05334   -0.05248
 33 Cu   -0.04186    0.06971   -0.05991
 34 Cu   -0.00276   -0.02849   -0.00680
 35 Cu    0.00677    0.00376    0.00643
 36 Cu    0.02224    0.00406   -0.03673
 37 Cu   -0.00747   -0.01337   -0.02214
 38 Cu   -0.03087   -0.04384   -0.02992
 39 Cu    0.03288    0.02699   -0.02901
 40 Cu    0.01429    0.02952   -0.05599
 41 Cu   -0.05324    0.01626   -0.12192
 42 Cu    0.00052    0.05449    0.00853
 43 Cu   -0.01882    0.00344    0.05028
 44 Cu   -0.00990   -0.02488    0.03710
 45 Cu   -0.01511    0.00454    0.03152
 46 Cu   -0.03152    0.00129    0.00949
 47 Cu   -0.01046   -0.01273    0.00766
 48 Cu    0.00940   -0.00127    0.03800
 49 Cu   -0.02402   -0.01990   -0.00479
 50 Cu    0.01635   -0.06148    0.05531
 51 Cu    0.02022   -0.03405    0.03508
 52 Cu    0.02225   -0.00873    0.02952
 53 Cu    0.00568    0.03159    0.05140
 54 Cl    0.02407    0.01244    0.06826
 55 Cl   -0.01533    0.03200   -0.03970
 56 Cl   -0.19638   -0.50298    0.04572
 57 Cl   -0.16543   -0.01773    0.18230
 58 Cl    0.15632    0.00113    0.17603
 59 Cl    0.20060    0.33806   -0.36085

System changes: positions 

Initializing position-dependent things.

Density initialized from wave functions
                                     
                                     
                                     
                                     
                         Cl          
                                     
                Cl                   
        Cl Cu    Cu     Cu           
               Cu    Cu     Cu       
         Cu     Cu    Cu             
             CCu    Cu    Cu         
       Cu           Cu               
           CCu   CCu    Cu           
         Cu    CCu   CCu    Cu       
                                     
       Cu    CCu    Cu    Cu         
           Cu    CCu    Cu           
                     Cu     Cu       
         Cu    CCu    Cu             
             Cu     Cu    Cu         
       Cu     Cu    Cu               
           Cu Cl  Cu    Cu           
                   Cl                
                                     
                        Cl           
                                     
                                     
                                     
                                     

Positions:
   0 Cu     1.881529    1.818436   10.055193    ( 0.0000,  0.0000,  0.0000)
   1 Cu     0.571354    0.514958   11.869329    ( 0.0000,  0.0000,  0.0000)
   2 Cu     3.206581    0.557260   11.826368    ( 0.0000,  0.0000,  0.0000)
   3 Cu     1.887664    1.830389   13.717031    ( 0.0000,  0.0000,  0.0000)
   4 Cu     0.573560    0.525419   15.549098    ( 0.0000,  0.0000,  0.0000)
   5 Cu     3.191551    0.524990   15.557391    ( 0.0000,  0.0000,  0.0000)
   6 Cu     1.908376    1.845426   17.402179    ( 0.0000,  0.0000,  0.0000)
   7 Cu     0.547928    0.509838   19.233495    ( 0.0000,  0.0000,  0.0000)
   8 Cu     3.215450    0.537545   19.235331    ( 0.0000,  0.0000,  0.0000)
   9 Cu     0.553907    3.127141   11.855647    ( 0.0000,  0.0000,  0.0000)
  10 Cu     0.575445    3.145578   15.547279    ( 0.0000,  0.0000,  0.0000)
  11 Cu     0.547503    3.203024   19.237568    ( 0.0000,  0.0000,  0.0000)
  12 Cu     7.151973    1.893487   10.014181    ( 0.0000,  0.0000,  0.0000)
  13 Cu     5.798411    0.541968   11.838021    ( 0.0000,  0.0000,  0.0000)
  14 Cu     7.116639    1.840379   13.695242    ( 0.0000,  0.0000,  0.0000)
  15 Cu     5.808399    0.525410   15.535725    ( 0.0000,  0.0000,  0.0000)
  16 Cu     7.110867    1.833236   17.364379    ( 0.0000,  0.0000,  0.0000)
  17 Cu     5.807875    0.527083   19.190229    ( 0.0000,  0.0000,  0.0000)
  18 Cu     4.456827    1.776282    9.925679    ( 0.0000,  0.0000,  0.0000)
  19 Cu     4.528988    4.517956    9.925406    ( 0.0000,  0.0000,  0.0000)
  20 Cu     3.208249    3.147167   11.842799    ( 0.0000,  0.0000,  0.0000)
  21 Cu     5.807609    3.125461   11.826166    ( 0.0000,  0.0000,  0.0000)
  22 Cu     4.494897    1.835267   13.703496    ( 0.0000,  0.0000,  0.0000)
  23 Cu     4.504910    4.452254   13.692593    ( 0.0000,  0.0000,  0.0000)
  24 Cu     3.200101    3.153558   15.544498    ( 0.0000,  0.0000,  0.0000)
  25 Cu     5.798048    3.138796   15.541271    ( 0.0000,  0.0000,  0.0000)
  26 Cu     4.477326    1.840198   17.429776    ( 0.0000,  0.0000,  0.0000)
  27 Cu     4.490748    4.457733   17.414466    ( 0.0000,  0.0000,  0.0000)
  28 Cu     3.234890    3.104811   19.309379    ( 0.0000,  0.0000,  0.0000)
  29 Cu     5.805672    3.119007   19.185792    ( 0.0000,  0.0000,  0.0000)
  30 Cu     1.854860    4.369651   10.077958    ( 0.0000,  0.0000,  0.0000)
  31 Cu     1.880721    7.048092    9.932670    ( 0.0000,  0.0000,  0.0000)
  32 Cu     0.577768    5.775088   11.876696    ( 0.0000,  0.0000,  0.0000)
  33 Cu     3.205163    5.755951   11.840826    ( 0.0000,  0.0000,  0.0000)
  34 Cu     1.882634    4.440772   13.694169    ( 0.0000,  0.0000,  0.0000)
  35 Cu     1.884268    7.072860   13.698686    ( 0.0000,  0.0000,  0.0000)
  36 Cu     0.586699    5.765355   15.537692    ( 0.0000,  0.0000,  0.0000)
  37 Cu     3.184199    5.753001   15.536324    ( 0.0000,  0.0000,  0.0000)
  38 Cu     1.889815    4.443381   17.408771    ( 0.0000,  0.0000,  0.0000)
  39 Cu     1.904739    7.061907   17.429661    ( 0.0000,  0.0000,  0.0000)
  40 Cu     0.579995    5.780951   19.187105    ( 0.0000,  0.0000,  0.0000)
  41 Cu     3.156050    5.802778   19.304498    ( 0.0000,  0.0000,  0.0000)
  42 Cu     7.113506    4.449556   10.051672    ( 0.0000,  0.0000,  0.0000)
  43 Cu     7.074125    7.035224   10.059608    ( 0.0000,  0.0000,  0.0000)
  44 Cu     5.788589    5.732736   11.825238    ( 0.0000,  0.0000,  0.0000)
  45 Cu     7.112085    4.455314   13.719113    ( 0.0000,  0.0000,  0.0000)
  46 Cu     7.100732    7.067367   13.695475    ( 0.0000,  0.0000,  0.0000)
  47 Cu     5.804449    5.753412   15.560670    ( 0.0000,  0.0000,  0.0000)
  48 Cu     7.120745    4.450123   17.398733    ( 0.0000,  0.0000,  0.0000)
  49 Cu     7.125513    7.068460   17.364521    ( 0.0000,  0.0000,  0.0000)
  50 Cu     5.840135    5.696672   19.232551    ( 0.0000,  0.0000,  0.0000)
  51 Cu     4.544383    7.106115   10.051810    ( 0.0000,  0.0000,  0.0000)
  52 Cu     4.514141    7.071624   13.710424    ( 0.0000,  0.0000,  0.0000)
  53 Cu     4.472273    7.057704   17.400817    ( 0.0000,  0.0000,  0.0000)
  54 Cl     3.122428    4.461611   21.173616    ( 0.0000,  0.0000,  0.0000)
  55 Cl     4.577830    3.152089    8.081340    ( 0.0000,  0.0000,  0.0000)
  56 Cl     1.806190    5.402394    8.108730    ( 0.0000,  0.0000,  0.0000)
  57 Cl     0.499384    1.846756   21.111888    ( 0.0000,  0.0000,  0.0000)
  58 Cl     5.897767    7.037695   21.112491    ( 0.0000,  0.0000,  0.0000)
  59 Cl     7.154771    0.800273    8.074330    ( 0.0000,  0.0000,  0.0000)

Unit cell:
           periodic     x           y           z      points  spacing
  1. axis:    yes    7.851007    0.000000    0.000000    45     0.1655
  2. axis:    yes    2.617002    7.851007    0.000000    48     0.1636
  3. axis:    yes    0.000000    0.000000   30.683867   175     0.1753

  Lengths:   7.851007   8.275688  30.683867
  Angles:   90.000000  90.000000  71.565053

Effective grid spacing dv^(1/3) = 0.1710

     iter     time        total  log10-change:
                         energy  eigst   dens
iter:   1 15:33:37 -4309.276223  -2.20
iter:   2 15:34:28 -4309.078591  -3.06  -2.45
iter:   3 15:35:19 -4308.934111  -3.62  -2.61
iter:   4 15:36:04 -4308.877013c -4.04  -2.76
iter:   5 15:36:53 -4308.870973c -3.63  -2.98
iter:   6 15:37:44 -4308.863332c -4.20  -3.30
iter:   7 15:38:35 -4308.864283c -4.91  -3.51
iter:   8 15:39:22 -4308.862738c -5.50  -3.60
iter:   9 15:40:08 -4308.861863c -5.14  -3.74
iter:  10 15:40:57 -4308.861591c -6.21  -3.89
iter:  11 15:41:53 -4308.861448c -5.92  -4.00
iter:  12 15:42:40 -4308.861400c -6.57  -4.09c
iter:  13 15:43:27 -4308.861397c -6.34  -4.27c
iter:  14 15:44:21 -4308.861395c -6.99  -4.44c
iter:  15 15:45:15 -4308.861383c -7.69c -4.55c

Converged after 15 iterations.

Dipole moment: (-1.773964, -27.256940, 0.065353) |e|*Ang

Energy contributions relative to reference atoms: (reference = -2506488.095795)

Kinetic:       +444.303293
Potential:     -483.585431
External:        +0.000000
XC:            -4268.528017
Entropy (-ST):   -0.597178
Local:           -0.752640
--------------------------
Free energy:   -4309.159972
Extrapolated:  -4308.861383

Showing only first 2 kpts
 Kpt  Band  Eigenvalues  Occupancy
  0   316     -1.05139    1.95341
  0   317     -0.85432    1.70777
  0   318     -0.69424    1.08210
  0   319     -0.66123    0.91742

  1   316     -0.96604    1.89396
  1   317     -0.84327    1.67909
  1   318     -0.81595    1.59852
  1   319     -0.80199    1.55184


Fermi level: -0.67778

No gap

Forces in eV/Ang:
  0 Cu   -0.02736   -0.06319    0.01982
  1 Cu   -0.06290   -0.08849   -0.09018
  2 Cu    0.00618   -0.01848    0.07267
  3 Cu   -0.00835   -0.01577   -0.00249
  4 Cu    0.00450   -0.00625   -0.00488
  5 Cu   -0.00248    0.00584    0.00293
  6 Cu   -0.03696   -0.02059    0.09266
  7 Cu    0.00832    0.01325    0.06217
  8 Cu   -0.00830   -0.01060    0.06085
  9 Cu    0.07104    0.04462    0.06922
 10 Cu    0.00396   -0.00216   -0.00899
 11 Cu   -0.00568   -0.00847    0.06839
 12 Cu   -0.00460   -0.01260    0.07893
 13 Cu    0.06954   -0.06966   -0.11461
 14 Cu   -0.01297   -0.01724    0.01170
 15 Cu   -0.00379    0.00215    0.00201
 16 Cu    0.04896    0.00554    0.03422
 17 Cu    0.00083    0.00130   -0.03878
 18 Cu   -0.00051   -0.00701    0.01287
 19 Cu   -0.01190    0.02465    0.03796
 20 Cu   -0.01453    0.01601    0.01397
 21 Cu   -0.05337    0.02285    0.06172
 22 Cu    0.01739   -0.00551   -0.00690
 23 Cu    0.00096    0.00841   -0.01066
 24 Cu   -0.00515   -0.00547    0.00332
 25 Cu   -0.00048   -0.00118    0.00756
 26 Cu   -0.02142   -0.02224   -0.04129
 27 Cu    0.02110    0.03524   -0.01028
 28 Cu   -0.00472    0.00918   -0.04847
 29 Cu    0.04334   -0.02139   -0.03756
 30 Cu    0.00077   -0.00288   -0.00957
 31 Cu   -0.00083    0.04091   -0.18836
 32 Cu    0.04453    0.01410   -0.08034
 33 Cu   -0.05535    0.03025   -0.08400
 34 Cu   -0.00405   -0.00067   -0.02990
 35 Cu    0.00411   -0.00300   -0.00773
 36 Cu    0.00062    0.00391   -0.00211
 37 Cu    0.00869    0.00430   -0.00224
 38 Cu   -0.02547   -0.03435   -0.01500
 39 Cu    0.01775    0.02484   -0.05578
 40 Cu   -0.03598    0.02155   -0.03185
 41 Cu    0.00387   -0.00435   -0.06185
 42 Cu    0.04902    0.13118    0.00832
 43 Cu    0.03387    0.01746    0.03463
 44 Cu   -0.00306   -0.01318    0.06567
 45 Cu   -0.00087    0.01599   -0.00778
 46 Cu    0.00428    0.00099   -0.01305
 47 Cu   -0.00586   -0.00011    0.00372
 48 Cu    0.00544   -0.00345    0.04742
 49 Cu   -0.03757   -0.00938    0.03506
 50 Cu    0.00981    0.00641    0.05401
 51 Cu   -0.03743   -0.03658    0.02473
 52 Cu   -0.01060   -0.00668   -0.00876
 53 Cu    0.03155    0.02996    0.08765
 54 Cl    0.02061    0.00742    0.00370
 55 Cl   -0.02679    0.02588    0.00945
 56 Cl   -0.22909   -0.14960   -0.10856
 57 Cl   -0.15633   -0.01300    0.06108
 58 Cl    0.15064    0.00699    0.05150
 59 Cl    0.22884    0.11348   -0.03778

System changes: positions 

Initializing position-dependent things.

Density initialized from wave functions
                                     
                                     
                                     
                                     
                         Cl          
                                     
                Cl                   
        Cl Cu    Cu     Cu           
               Cu    Cu     Cu       
         Cu     Cu    Cu             
       Cu    CCu    Cu    Cu         
                    Cu               
           CCu   CCu    Cu           
         Cu    CCu   CCu    Cu       
                                     
       Cu    CCu    Cu    Cu         
           Cu    CCu   CCu           
                     Cu    Cu        
         Cu    CCu    Cu             
             Cu     Cu    Cu         
       Cu     Cu    Cu               
           CuCl   Cu    Cu           
                   Cl                
                                     
                        Cl           
                                     
                                     
                                     
                                     

Positions:
   0 Cu     1.884164    1.797167   10.061631    ( 0.0000,  0.0000,  0.0000)
   1 Cu     0.558965    0.499302   11.854938    ( 0.0000,  0.0000,  0.0000)
   2 Cu     3.207850    0.557000   11.839959    ( 0.0000,  0.0000,  0.0000)
   3 Cu     1.887387    1.826582   13.721373    ( 0.0000,  0.0000,  0.0000)
   4 Cu     0.572363    0.523881   15.544528    ( 0.0000,  0.0000,  0.0000)
   5 Cu     3.193161    0.526795   15.557470    ( 0.0000,  0.0000,  0.0000)
   6 Cu     1.902225    1.839998   17.415492    ( 0.0000,  0.0000,  0.0000)
   7 Cu     0.543329    0.505569   19.256806    ( 0.0000,  0.0000,  0.0000)
   8 Cu     3.219959    0.541526   19.257885    ( 0.0000,  0.0000,  0.0000)
   9 Cu     0.556584    3.126712   11.871644    ( 0.0000,  0.0000,  0.0000)
  10 Cu     0.576150    3.145838   15.543787    ( 0.0000,  0.0000,  0.0000)
  11 Cu     0.546453    3.208371   19.263434    ( 0.0000,  0.0000,  0.0000)
  12 Cu     7.153780    1.922979   10.039885    ( 0.0000,  0.0000,  0.0000)
  13 Cu     5.812479    0.530435   11.820105    ( 0.0000,  0.0000,  0.0000)
  14 Cu     7.115105    1.840154   13.697324    ( 0.0000,  0.0000,  0.0000)
  15 Cu     5.807608    0.526229   15.530182    ( 0.0000,  0.0000,  0.0000)
  16 Cu     7.120119    1.836090   17.364114    ( 0.0000,  0.0000,  0.0000)
  17 Cu     5.807990    0.527436   19.176636    ( 0.0000,  0.0000,  0.0000)
  18 Cu     4.446314    1.775501    9.929501    ( 0.0000,  0.0000,  0.0000)
  19 Cu     4.534067    4.524067    9.933064    ( 0.0000,  0.0000,  0.0000)
  20 Cu     3.208775    3.147633   11.851472    ( 0.0000,  0.0000,  0.0000)
  21 Cu     5.803573    3.124466   11.834764    ( 0.0000,  0.0000,  0.0000)
  22 Cu     4.495722    1.835532   13.701482    ( 0.0000,  0.0000,  0.0000)
  23 Cu     4.506751    4.453424   13.688801    ( 0.0000,  0.0000,  0.0000)
  24 Cu     3.201776    3.155361   15.543279    ( 0.0000,  0.0000,  0.0000)
  25 Cu     5.795388    3.137814   15.539382    ( 0.0000,  0.0000,  0.0000)
  26 Cu     4.471914    1.834517   17.421377    ( 0.0000,  0.0000,  0.0000)
  27 Cu     4.495722    4.466888   17.410160    ( 0.0000,  0.0000,  0.0000)
  28 Cu     3.243492    3.113009   19.295098    ( 0.0000,  0.0000,  0.0000)
  29 Cu     5.806066    3.111791   19.172873    ( 0.0000,  0.0000,  0.0000)
  30 Cu     1.855995    4.355732   10.077333    ( 0.0000,  0.0000,  0.0000)
  31 Cu     1.879535    7.037470    9.855922    ( 0.0000,  0.0000,  0.0000)
  32 Cu     0.585812    5.780334   11.865503    ( 0.0000,  0.0000,  0.0000)
  33 Cu     3.194633    5.765078   11.828323    ( 0.0000,  0.0000,  0.0000)
  34 Cu     1.881579    4.437327   13.688460    ( 0.0000,  0.0000,  0.0000)
  35 Cu     1.885600    7.072999   13.698725    ( 0.0000,  0.0000,  0.0000)
  36 Cu     0.589678    5.766628   15.532430    ( 0.0000,  0.0000,  0.0000)
  37 Cu     3.184061    5.751475   15.533448    ( 0.0000,  0.0000,  0.0000)
  38 Cu     1.883229    4.434151   17.402315    ( 0.0000,  0.0000,  0.0000)
  39 Cu     1.909767    7.067967   17.418672    ( 0.0000,  0.0000,  0.0000)
  40 Cu     0.580971    5.788183   19.176298    ( 0.0000,  0.0000,  0.0000)
  41 Cu     3.147171    5.797093   19.286976    ( 0.0000,  0.0000,  0.0000)
  42 Cu     7.115619    4.473516   10.054658    ( 0.0000,  0.0000,  0.0000)
  43 Cu     7.072347    7.038622   10.069681    ( 0.0000,  0.0000,  0.0000)
  44 Cu     5.787167    5.727961   11.837317    ( 0.0000,  0.0000,  0.0000)
  45 Cu     7.110587    4.458899   13.723170    ( 0.0000,  0.0000,  0.0000)
  46 Cu     7.097754    7.067577   13.694934    ( 0.0000,  0.0000,  0.0000)
  47 Cu     5.802681    5.751908   15.563219    ( 0.0000,  0.0000,  0.0000)
  48 Cu     7.122795    4.449581   17.405428    ( 0.0000,  0.0000,  0.0000)
  49 Cu     7.119473    7.064507   17.364702    ( 0.0000,  0.0000,  0.0000)
  50 Cu     5.842423    5.691216   19.254591    ( 0.0000,  0.0000,  0.0000)
  51 Cu     4.545784    7.098548   10.058752    ( 0.0000,  0.0000,  0.0000)
  52 Cu     4.515168    7.070094   13.713275    ( 0.0000,  0.0000,  0.0000)
  53 Cu     4.476382    7.065627   17.413135    ( 0.0000,  0.0000,  0.0000)
  54 Cl     3.128880    4.464782   21.171659    ( 0.0000,  0.0000,  0.0000)
  55 Cl     4.572439    3.159266    8.086990    ( 0.0000,  0.0000,  0.0000)
  56 Cl     1.749485    5.325153    8.071247    ( 0.0000,  0.0000,  0.0000)
  57 Cl     0.455420    1.842811   21.137685    ( 0.0000,  0.0000,  0.0000)
  58 Cl     5.939575    7.038164   21.136289    ( 0.0000,  0.0000,  0.0000)
  59 Cl     7.211925    0.883237    8.066354    ( 0.0000,  0.0000,  0.0000)

Unit cell:
           periodic     x           y           z      points  spacing
  1. axis:    yes    7.851007    0.000000    0.000000    45     0.1655
  2. axis:    yes    2.617002    7.851007    0.000000    48     0.1636
  3. axis:    yes    0.000000    0.000000   30.683867   175     0.1753

  Lengths:   7.851007   8.275688  30.683867
  Angles:   90.000000  90.000000  71.565053

Effective grid spacing dv^(1/3) = 0.1710

     iter     time        total  log10-change:
                         energy  eigst   dens
iter:   1 15:46:38 -4309.096477  -2.36
iter:   2 15:47:25 -4309.080613  -3.23  -2.64
iter:   3 15:48:29 -4308.958227c -3.95  -2.70
iter:   4 15:49:31 -4308.947867c -4.59  -3.00
iter:   5 15:50:24 -4308.946910c -4.18  -3.16
iter:   6 15:51:15 -4308.944388c -4.76  -3.41
iter:   7 15:52:00 -4308.945181c -5.06  -3.59
iter:   8 15:52:44 -4308.944870c -5.78  -3.72
iter:   9 15:53:29 -4308.944059c -5.66  -3.80
iter:  10 15:54:13 -4308.943997c -6.04  -3.99
iter:  11 15:54:57 -4308.943901c -5.98  -4.04c
iter:  12 15:55:43 -4308.943901c -7.07  -4.35c
iter:  13 15:56:29 -4308.943895c -6.43  -4.41c
iter:  14 15:57:14 -4308.943893c -7.54c -4.61c

Converged after 14 iterations.

Dipole moment: (3.844456, -26.561210, 0.065461) |e|*Ang

Energy contributions relative to reference atoms: (reference = -2506488.095795)

Kinetic:       +442.271406
Potential:     -482.059094
External:        +0.000000
XC:            -4268.105602
Entropy (-ST):   -0.596566
Local:           -0.752320
--------------------------
Free energy:   -4309.242176
Extrapolated:  -4308.943893

Showing only first 2 kpts
 Kpt  Band  Eigenvalues  Occupancy
  0   316     -1.06546    1.95277
  0   317     -0.87117    1.71115
  0   318     -0.71014    1.08417
  0   319     -0.67271    0.89758

  1   316     -0.97912    1.89152
  1   317     -0.85630    1.67242
  1   318     -0.83428    1.60756
  1   319     -0.81394    1.53943


Fermi level: -0.69327

No gap

Forces in eV/Ang:
  0 Cu   -0.05595   -0.00817    0.01138
  1 Cu   -0.02125   -0.03491   -0.04072
  2 Cu    0.00069   -0.02722    0.03534
  3 Cu   -0.01935   -0.02284   -0.02923
  4 Cu    0.02539    0.00149    0.01840
  5 Cu   -0.02559   -0.00426    0.00276
  6 Cu   -0.02293   -0.01131    0.07327
  7 Cu    0.01775    0.03445    0.04122
  8 Cu   -0.01869   -0.02933    0.04267
  9 Cu    0.07285    0.05676    0.03039
 10 Cu   -0.00242   -0.01146   -0.00214
 11 Cu    0.00728   -0.02863    0.04908
 12 Cu   -0.02884   -0.10812   -0.02426
 13 Cu    0.01704   -0.02791   -0.06925
 14 Cu   -0.00745   -0.03937   -0.01661
 15 Cu   -0.00259   -0.00114    0.03830
 16 Cu    0.03510   -0.00522    0.03037
 17 Cu    0.00265   -0.00075   -0.02291
 18 Cu    0.03967    0.01177    0.00104
 19 Cu   -0.02784   -0.01003    0.02049
 20 Cu   -0.03471    0.01695   -0.02936
 21 Cu   -0.02828    0.03463    0.04203
 22 Cu    0.02877   -0.02100   -0.00029
 23 Cu   -0.03596    0.01232    0.01489
 24 Cu   -0.02370   -0.02007    0.00858
 25 Cu    0.02191    0.00427    0.02549
 26 Cu   -0.00905   -0.00372   -0.01873
 27 Cu    0.01468    0.01031    0.00147
 28 Cu   -0.03340    0.00289   -0.00563
 29 Cu    0.04498   -0.00515   -0.01493
 30 Cu    0.01788    0.02389   -0.03276
 31 Cu    0.00304    0.06307   -0.13986
 32 Cu    0.03822    0.00380   -0.05821
 33 Cu   -0.03659   -0.02036   -0.07016
 34 Cu    0.01131    0.03618   -0.00534
 35 Cu   -0.00687   -0.01268   -0.01079
 36 Cu   -0.02022   -0.00168    0.02623
 37 Cu    0.01831    0.01266    0.01854
 38 Cu   -0.01515   -0.01033    0.00564
 39 Cu    0.00468    0.00877   -0.02896
 40 Cu   -0.03652    0.00579   -0.01487
 41 Cu    0.03067   -0.00798   -0.01447
 42 Cu    0.05472    0.08423    0.00644
 43 Cu    0.02662    0.03988    0.00684
 44 Cu    0.00145    0.01623    0.03674
 45 Cu    0.01741    0.01046   -0.02345
 46 Cu    0.04511    0.00188   -0.02115
 47 Cu    0.00469    0.01593   -0.00261
 48 Cu    0.00173   -0.00468    0.02453
 49 Cu   -0.03040    0.00416    0.03255
 50 Cu   -0.00371    0.02853    0.03877
 51 Cu   -0.03007   -0.04049    0.00494
 52 Cu   -0.03776   -0.00451   -0.02877
 53 Cu    0.02520    0.01862    0.06893
 54 Cl    0.01471    0.00396   -0.04486
 55 Cl   -0.02273    0.01152    0.03514
 56 Cl   -0.25290    0.04850   -0.02188
 57 Cl   -0.13728   -0.00720   -0.00848
 58 Cl    0.13588    0.01125   -0.02053
 59 Cl    0.24767   -0.09626    0.01484

System changes: positions 

Initializing position-dependent things.

Density initialized from wave functions
                                      
                                      
                                      
                                      
                         Cl           
                                      
                 Cl                   
        Cl Cu     Cu    Cu            
               Cu     Cu    Cu        
         Cu     Cu    Cu              
        Cu    Cu    Cu     Cu         
                     Cu               
           CCu    Cu    CCu           
         Cu    CCu    Cu    Cu        
                                      
        Cu    Cu    CCu    Cu         
           CCu    Cu    CCu           
                      Cu    Cu        
         Cu    CCu    Cu              
             Cu     Cu     Cu         
        Cu    Cu     Cu               
            CuCl  Cu     Cu           
                   Cl                 
                                      
                         Cl           
                                      
                                      
                                      
                                      

Positions:
   0 Cu     1.879169    1.779975   10.068197    ( 0.0000,  0.0000,  0.0000)
   1 Cu     0.547744    0.484804   11.840488    ( 0.0000,  0.0000,  0.0000)
   2 Cu     3.208724    0.553559   11.853432    ( 0.0000,  0.0000,  0.0000)
   3 Cu     1.884514    1.820348   13.720674    ( 0.0000,  0.0000,  0.0000)
   4 Cu     0.575209    0.523140   15.543715    ( 0.0000,  0.0000,  0.0000)
   5 Cu     3.190526    0.527352   15.557794    ( 0.0000,  0.0000,  0.0000)
   6 Cu     1.895395    1.834328   17.434036    ( 0.0000,  0.0000,  0.0000)
   7 Cu     0.541364    0.504709   19.279524    ( 0.0000,  0.0000,  0.0000)
   8 Cu     3.221668    0.542748   19.280276    ( 0.0000,  0.0000,  0.0000)
   9 Cu     0.565399    3.131989   11.887199    ( 0.0000,  0.0000,  0.0000)
  10 Cu     0.576116    3.144275   15.540755    ( 0.0000,  0.0000,  0.0000)
  11 Cu     0.547009    3.210856   19.289431    ( 0.0000,  0.0000,  0.0000)
  12 Cu     7.151088    1.936059   10.058510    ( 0.0000,  0.0000,  0.0000)
  13 Cu     5.824080    0.519638   11.799236    ( 0.0000,  0.0000,  0.0000)
  14 Cu     7.113371    1.834611   13.695519    ( 0.0000,  0.0000,  0.0000)
  15 Cu     5.806695    0.526672   15.531302    ( 0.0000,  0.0000,  0.0000)
  16 Cu     7.131335    1.837465   17.366555    ( 0.0000,  0.0000,  0.0000)
  17 Cu     5.808486    0.527548   19.162504    ( 0.0000,  0.0000,  0.0000)
  18 Cu     4.442992    1.776998    9.932873    ( 0.0000,  0.0000,  0.0000)
  19 Cu     4.534835    4.526692    9.941359    ( 0.0000,  0.0000,  0.0000)
  20 Cu     3.205009    3.149295   11.854226    ( 0.0000,  0.0000,  0.0000)
  21 Cu     5.799130    3.127562   11.845343    ( 0.0000,  0.0000,  0.0000)
  22 Cu     4.500032    1.832714   13.700057    ( 0.0000,  0.0000,  0.0000)
  23 Cu     4.502292    4.455931   13.688606    ( 0.0000,  0.0000,  0.0000)
  24 Cu     3.199708    3.154023   15.543247    ( 0.0000,  0.0000,  0.0000)
  25 Cu     5.796628    3.137699   15.541291    ( 0.0000,  0.0000,  0.0000)
  26 Cu     4.466557    1.829982   17.413521    ( 0.0000,  0.0000,  0.0000)
  27 Cu     4.501611    4.474863   17.407280    ( 0.0000,  0.0000,  0.0000)
  28 Cu     3.246385    3.119994   19.283582    ( 0.0000,  0.0000,  0.0000)
  29 Cu     5.810943    3.105902   19.160658    ( 0.0000,  0.0000,  0.0000)
  30 Cu     1.860126    4.349911   10.067087    ( 0.0000,  0.0000,  0.0000)
  31 Cu     1.879019    7.034907    9.778386    ( 0.0000,  0.0000,  0.0000)
  32 Cu     0.596867    5.785429   11.850596    ( 0.0000,  0.0000,  0.0000)
  33 Cu     3.182265    5.768471   11.810339    ( 0.0000,  0.0000,  0.0000)
  34 Cu     1.882841    4.440261   13.684470    ( 0.0000,  0.0000,  0.0000)
  35 Cu     1.885386    7.071177   13.697474    ( 0.0000,  0.0000,  0.0000)
  36 Cu     0.589002    5.767250   15.532025    ( 0.0000,  0.0000,  0.0000)
  37 Cu     3.186430    5.751881   15.533995    ( 0.0000,  0.0000,  0.0000)
  38 Cu     1.876061    4.426020   17.398462    ( 0.0000,  0.0000,  0.0000)
  39 Cu     1.914297    7.073547   17.407677    ( 0.0000,  0.0000,  0.0000)
  40 Cu     0.578278    5.794191   19.165665    ( 0.0000,  0.0000,  0.0000)
  41 Cu     3.143659    5.791288   19.271836    ( 0.0000,  0.0000,  0.0000)
  42 Cu     7.123530    4.500596   10.057904    ( 0.0000,  0.0000,  0.0000)
  43 Cu     7.072555    7.047313   10.078044    ( 0.0000,  0.0000,  0.0000)
  44 Cu     5.786300    5.727211   11.850139    ( 0.0000,  0.0000,  0.0000)
  45 Cu     7.112169    4.462810   13.723585    ( 0.0000,  0.0000,  0.0000)
  46 Cu     7.102288    7.068019   13.691807    ( 0.0000,  0.0000,  0.0000)
  47 Cu     5.802225    5.753212   15.564874    ( 0.0000,  0.0000,  0.0000)
  48 Cu     7.124627    4.448520   17.413062    ( 0.0000,  0.0000,  0.0000)
  49 Cu     7.111258    7.062197   17.367878    ( 0.0000,  0.0000,  0.0000)
  50 Cu     5.843333    5.688751   19.276246    ( 0.0000,  0.0000,  0.0000)
  51 Cu     4.544901    7.087077   10.064548    ( 0.0000,  0.0000,  0.0000)
  52 Cu     4.510510    7.068321   13.711756    ( 0.0000,  0.0000,  0.0000)
  53 Cu     4.482059    7.074226   17.430357    ( 0.0000,  0.0000,  0.0000)
  54 Cl     3.135947    4.467896   21.162816    ( 0.0000,  0.0000,  0.0000)
  55 Cl     4.565441    3.166137    8.096923    ( 0.0000,  0.0000,  0.0000)
  56 Cl     1.669549    5.262138    8.042300    ( 0.0000,  0.0000,  0.0000)
  57 Cl     0.401990    1.838739   21.159336    ( 0.0000,  0.0000,  0.0000)
  58 Cl     5.991168    7.040116   21.154693    ( 0.0000,  0.0000,  0.0000)
  59 Cl     7.291381    0.942139    8.057792    ( 0.0000,  0.0000,  0.0000)

Unit cell:
           periodic     x           y           z      points  spacing
  1. axis:    yes    7.851007    0.000000    0.000000    45     0.1655
  2. axis:    yes    2.617002    7.851007    0.000000    48     0.1636
  3. axis:    yes    0.000000    0.000000   30.683867   175     0.1753

  Lengths:   7.851007   8.275688  30.683867
  Angles:   90.000000  90.000000  71.565053

Effective grid spacing dv^(1/3) = 0.1710

     iter     time        total  log10-change:
                         energy  eigst   dens
iter:   1 15:58:26 -4309.048643  -2.37
iter:   2 15:59:09 -4309.014585  -3.61  -2.82
iter:   3 15:59:54 -4309.009333c -4.31  -2.99
iter:   4 16:00:43 -4309.007756c -4.55  -3.05
iter:   5 16:01:31 -4309.003402c -4.21  -3.13
iter:   6 16:02:20 -4309.000409c -4.65  -3.38
iter:   7 16:03:11 -4309.000633c -5.51  -3.57
iter:   8 16:04:01 -4308.999970c -5.39  -3.65
iter:   9 16:04:50 -4308.999896c -6.07  -3.93
iter:  10 16:05:40 -4308.999885c -6.10  -4.12c
iter:  11 16:06:28 -4308.999864c -6.44  -4.16c
iter:  12 16:07:16 -4308.999856c -7.07  -4.32c
iter:  13 16:08:08 -4308.999817c -6.76  -4.45c
iter:  14 16:08:58 -4308.999803c -6.97  -4.57c
iter:  15 16:09:44 -4308.999802c -7.78c -4.71c

Converged after 15 iterations.

Dipole moment: (11.455091, -26.224872, 0.058903) |e|*Ang

Energy contributions relative to reference atoms: (reference = -2506488.095795)

Kinetic:       +441.175097
Potential:     -481.268987
External:        +0.000000
XC:            -4267.853857
Entropy (-ST):   -0.596599
Local:           -0.753755
--------------------------
Free energy:   -4309.298102
Extrapolated:  -4308.999802

Showing only first 2 kpts
 Kpt  Band  Eigenvalues  Occupancy
  0   316     -1.06414    1.95241
  0   317     -0.87111    1.71238
  0   318     -0.70873    1.07990
  0   319     -0.66610    0.86770

  1   316     -0.97794    1.89087
  1   317     -0.85555    1.67189
  1   318     -0.83759    1.61962
  1   319     -0.80751    1.51826


Fermi level: -0.69272

No gap

Forces in eV/Ang:
  0 Cu   -0.04262    0.03260    0.00200
  1 Cu    0.01229    0.00711    0.00719
  2 Cu   -0.00759   -0.00855   -0.02105
  3 Cu   -0.00757   -0.00617   -0.03534
  4 Cu    0.02364    0.00196    0.02387
  5 Cu   -0.02629   -0.01621   -0.00839
  6 Cu    0.00439    0.00433    0.03873
  7 Cu    0.01686    0.02030    0.01335
  8 Cu   -0.01671   -0.01477    0.01278
  9 Cu    0.02723    0.03943   -0.04036
 10 Cu   -0.00278   -0.01182   -0.00538
 11 Cu    0.01541   -0.01990    0.01829
 12 Cu   -0.04779   -0.10408   -0.07890
 13 Cu   -0.02718    0.02263   -0.00641
 14 Cu   -0.00100   -0.03636   -0.02946
 15 Cu    0.00085   -0.00557    0.04444
 16 Cu    0.01384   -0.00773    0.02199
 17 Cu    0.00199   -0.00169   -0.00068
 18 Cu    0.03819    0.01341    0.02397
 19 Cu   -0.00957   -0.02794    0.02888
 20 Cu   -0.03103    0.00229   -0.04572
 21 Cu    0.01331    0.02764    0.00272
 22 Cu    0.01343   -0.01158    0.00795
 23 Cu   -0.03387    0.00183    0.02866
 24 Cu   -0.02462   -0.02185    0.00946
 25 Cu    0.02351    0.01226    0.01501
 26 Cu   -0.00206    0.01609    0.01553
 27 Cu    0.00359   -0.01059    0.01175
 28 Cu   -0.03001   -0.02693    0.00639
 29 Cu    0.01649    0.01188    0.01178
 30 Cu    0.03551    0.00428   -0.00338
 31 Cu    0.00467    0.05718   -0.04994
 32 Cu    0.02064    0.00180   -0.02127
 33 Cu   -0.00276   -0.04578   -0.03071
 34 Cu    0.01424    0.04697    0.02996
 35 Cu   -0.00835   -0.01285   -0.00080
 36 Cu   -0.02251   -0.00800    0.03873
 37 Cu    0.01286    0.01292    0.03680
 38 Cu    0.00218    0.00841    0.02204
 39 Cu   -0.00196   -0.01428    0.01657
 40 Cu   -0.01351   -0.01055    0.00716
 41 Cu    0.03218    0.01944    0.00044
 42 Cu    0.02635   -0.00826    0.00331
 43 Cu    0.00294    0.05259   -0.01610
 44 Cu    0.00600    0.02421   -0.00127
 45 Cu    0.01391    0.00104   -0.01979
 46 Cu    0.04319   -0.00045   -0.00861
 47 Cu    0.00987    0.02297   -0.01604
 48 Cu   -0.00316   -0.00092   -0.00039
 49 Cu   -0.02052    0.01142    0.02027
 50 Cu   -0.01461    0.02092    0.00985
 51 Cu   -0.00845   -0.02525   -0.00679
 52 Cu   -0.03082   -0.01074   -0.03098
 53 Cu    0.00892   -0.00370    0.03568
 54 Cl    0.00845    0.00011   -0.03185
 55 Cl   -0.01382   -0.00625    0.01364
 56 Cl   -0.26680    0.16554   -0.01522
 57 Cl   -0.11520   -0.00179   -0.03481
 58 Cl    0.11779    0.01205   -0.04520
 59 Cl    0.24573   -0.18780    0.03294

System changes: positions 

Initializing position-dependent things.

Density initialized from wave functions
                                      
                                      
                                      
                                      
                         Cl           
                                      
                 Cl                   
        Cl Cu     Cu    Cu            
               Cu     Cu    Cu        
          Cu    Cu    Cu              
        Cu    Cu    Cu    Cu          
                     Cu               
           CCu    Cu    CCu           
          Cu   CCu    Cu    Cu        
                                      
        Cu    Cu    CCu   Cu          
           CCu    Cu    CCu           
                      Cu    Cu        
          Cu   CCu    Cu              
             CCu    Cu    Cu          
        Cu           Cu               
            Cul   Cu     Cu           
                   Cl                 
                                      
                         Cl           
                                      
                                      
                                      
                                      

Positions:
   0 Cu     1.870137    1.769036   10.074179    ( 0.0000,  0.0000,  0.0000)
   1 Cu     0.539262    0.472983   11.828806    ( 0.0000,  0.0000,  0.0000)
   2 Cu     3.208287    0.550329   11.861222    ( 0.0000,  0.0000,  0.0000)
   3 Cu     1.881689    1.814820   13.715626    ( 0.0000,  0.0000,  0.0000)
   4 Cu     0.580405    0.522586   15.545919    ( 0.0000,  0.0000,  0.0000)
   5 Cu     3.185113    0.525419   15.556513    ( 0.0000,  0.0000,  0.0000)
   6 Cu     1.890800    1.830114   17.455218    ( 0.0000,  0.0000,  0.0000)
   7 Cu     0.541585    0.503994   19.299421    ( 0.0000,  0.0000,  0.0000)
   8 Cu     3.221291    0.544454   19.299702    ( 0.0000,  0.0000,  0.0000)
   9 Cu     0.574310    3.140445   11.894086    ( 0.0000,  0.0000,  0.0000)
  10 Cu     0.575837    3.141452   15.537001    ( 0.0000,  0.0000,  0.0000)
  11 Cu     0.549525    3.212825   19.312767    ( 0.0000,  0.0000,  0.0000)
  12 Cu     7.142161    1.938498   10.068555    ( 0.0000,  0.0000,  0.0000)
  13 Cu     5.830710    0.513835   11.780621    ( 0.0000,  0.0000,  0.0000)
  14 Cu     7.111845    1.825436   13.689964    ( 0.0000,  0.0000,  0.0000)
  15 Cu     5.806098    0.526233   15.537725    ( 0.0000,  0.0000,  0.0000)
  16 Cu     7.142812    1.837772   17.371476    ( 0.0000,  0.0000,  0.0000)
  17 Cu     5.809130    0.527431   19.150026    ( 0.0000,  0.0000,  0.0000)
  18 Cu     4.444037    1.779555    9.940781    ( 0.0000,  0.0000,  0.0000)
  19 Cu     4.535177    4.525656    9.953739    ( 0.0000,  0.0000,  0.0000)
  20 Cu     3.198558    3.150048   11.851368    ( 0.0000,  0.0000,  0.0000)
  21 Cu     5.798279    3.133367   11.853925    ( 0.0000,  0.0000,  0.0000)
  22 Cu     4.504768    1.829430   13.700050    ( 0.0000,  0.0000,  0.0000)
  23 Cu     4.494615    4.457856   13.692343    ( 0.0000,  0.0000,  0.0000)
  24 Cu     3.194915    3.150107   15.544322    ( 0.0000,  0.0000,  0.0000)
  25 Cu     5.800467    3.139443   15.544131    ( 0.0000,  0.0000,  0.0000)
  26 Cu     4.461216    1.828298   17.409650    ( 0.0000,  0.0000,  0.0000)
  27 Cu     4.507308    4.480463   17.406602    ( 0.0000,  0.0000,  0.0000)
  28 Cu     3.245819    3.121070   19.273066    ( 0.0000,  0.0000,  0.0000)
  29 Cu     5.816381    3.102759   19.151626    ( 0.0000,  0.0000,  0.0000)
  30 Cu     1.869013    4.346634   10.054726    ( 0.0000,  0.0000,  0.0000)
  31 Cu     1.879188    7.039417    9.709216    ( 0.0000,  0.0000,  0.0000)
  32 Cu     0.609217    5.790882   11.835047    ( 0.0000,  0.0000,  0.0000)
  33 Cu     3.171482    5.765871   11.790969    ( 0.0000,  0.0000,  0.0000)
  34 Cu     1.885704    4.448822   13.685894    ( 0.0000,  0.0000,  0.0000)
  35 Cu     1.884251    7.068002   13.696689    ( 0.0000,  0.0000,  0.0000)
  36 Cu     0.585727    5.766596   15.536699    ( 0.0000,  0.0000,  0.0000)
  37 Cu     3.189879    5.753817   15.539661    ( 0.0000,  0.0000,  0.0000)
  38 Cu     1.870157    4.419905   17.398345    ( 0.0000,  0.0000,  0.0000)
  39 Cu     1.918391    7.076245   17.401472    ( 0.0000,  0.0000,  0.0000)
  40 Cu     0.574948    5.797643   19.157366    ( 0.0000,  0.0000,  0.0000)
  41 Cu     3.144240    5.790409   19.257244    ( 0.0000,  0.0000,  0.0000)
  42 Cu     7.133100    4.520902   10.061128    ( 0.0000,  0.0000,  0.0000)
  43 Cu     7.072183    7.062194   10.083297    ( 0.0000,  0.0000,  0.0000)
  44 Cu     5.786418    5.729500   11.860581    ( 0.0000,  0.0000,  0.0000)
  45 Cu     7.114896    4.466135   13.721790    ( 0.0000,  0.0000,  0.0000)
  46 Cu     7.111188    7.068237   13.688540    ( 0.0000,  0.0000,  0.0000)
  47 Cu     5.803107    5.757411   15.563777    ( 0.0000,  0.0000,  0.0000)
  48 Cu     7.125736    4.447615   17.419952    ( 0.0000,  0.0000,  0.0000)
  49 Cu     7.101272    7.061677   17.373046    ( 0.0000,  0.0000,  0.0000)
  50 Cu     5.842137    5.686929   19.294503    ( 0.0000,  0.0000,  0.0000)
  51 Cu     4.543845    7.073964   10.069009    ( 0.0000,  0.0000,  0.0000)
  52 Cu     4.503068    7.064938   13.706611    ( 0.0000,  0.0000,  0.0000)
  53 Cu     4.487676    7.080951   17.449968    ( 0.0000,  0.0000,  0.0000)
  54 Cl     3.143300    4.470621   21.152989    ( 0.0000,  0.0000,  0.0000)
  55 Cl     4.557557    3.171101    8.105644    ( 0.0000,  0.0000,  0.0000)
  56 Cl     1.561638    5.219192    8.014553    ( 0.0000,  0.0000,  0.0000)
  57 Cl     0.338923    1.834855   21.177650    ( 0.0000,  0.0000,  0.0000)
  58 Cl     6.053017    7.043530   21.168801    ( 0.0000,  0.0000,  0.0000)
  59 Cl     7.395467    0.975949    8.048260    ( 0.0000,  0.0000,  0.0000)

Unit cell:
           periodic     x           y           z      points  spacing
  1. axis:    yes    7.851007    0.000000    0.000000    45     0.1655
  2. axis:    yes    2.617002    7.851007    0.000000    48     0.1636
  3. axis:    yes    0.000000    0.000000   30.683867   175     0.1753

  Lengths:   7.851007   8.275688  30.683867
  Angles:   90.000000  90.000000  71.565053

Effective grid spacing dv^(1/3) = 0.1710

     iter     time        total  log10-change:
                         energy  eigst   dens
iter:   1 16:11:02 -4309.220843  -2.34
iter:   2 16:11:48 -4309.092402  -3.33  -2.60
iter:   3 16:12:33 -4309.077305c -4.01  -2.85
iter:   4 16:13:25 -4309.056183c -4.66  -2.92
iter:   5 16:14:11 -4309.052707c -4.08  -3.07
iter:   6 16:14:56 -4309.050100c -4.86  -3.36
iter:   7 16:15:48 -4309.050434c -5.01  -3.47
iter:   8 16:16:31 -4309.050072c -5.88  -3.63
iter:   9 16:17:18 -4309.049339c -5.23  -3.80
iter:  10 16:18:04 -4309.049290c -6.19  -4.02c
iter:  11 16:18:50 -4309.049220c -6.39  -4.10c
iter:  12 16:19:37 -4309.049212c -6.69  -4.18c
iter:  13 16:20:24 -4309.049198c -6.57  -4.27c
iter:  14 16:21:10 -4309.049196c -7.70c -4.62c

Converged after 14 iterations.

Dipole moment: (19.494734, -26.054466, 0.056484) |e|*Ang

Energy contributions relative to reference atoms: (reference = -2506488.095795)

Kinetic:       +440.034856
Potential:     -480.434979
External:        +0.000000
XC:            -4267.590262
Entropy (-ST):   -0.597447
Local:           -0.760088
--------------------------
Free energy:   -4309.347920
Extrapolated:  -4309.049196

Showing only first 2 kpts
 Kpt  Band  Eigenvalues  Occupancy
  0   316     -1.06143    1.95206
  0   317     -0.86774    1.70887
  0   318     -0.70507    1.07147
  0   319     -0.66076    0.85114

  1   316     -0.97667    1.89158
  1   317     -0.85369    1.67215
  1   318     -0.84058    1.63463
  1   319     -0.79801    1.49015


Fermi level: -0.69075

No gap

Forces in eV/Ang:
  0 Cu   -0.01936    0.04460   -0.03195
  1 Cu    0.02949    0.03275    0.04036
  2 Cu   -0.01735    0.01236   -0.04850
  3 Cu    0.00301    0.01974   -0.02744
  4 Cu    0.00728    0.00664    0.01724
  5 Cu   -0.01134   -0.01111   -0.01397
  6 Cu    0.02088    0.01294   -0.01946
  7 Cu    0.00876    0.01908   -0.00230
  8 Cu   -0.00727   -0.00972   -0.00489
  9 Cu   -0.02417    0.00672   -0.07733
 10 Cu   -0.00214   -0.01445   -0.00464
 11 Cu    0.01243   -0.01609   -0.00579
 12 Cu   -0.04864   -0.07829   -0.13396
 13 Cu   -0.04884    0.05440    0.06131
 14 Cu    0.00849   -0.01090   -0.01737
 15 Cu    0.00596    0.00070    0.03230
 16 Cu   -0.01076   -0.00363    0.00233
 17 Cu    0.00038    0.00059    0.02498
 18 Cu    0.01522    0.02617    0.01953
 19 Cu    0.01789   -0.04436    0.00996
 20 Cu   -0.00762   -0.01167   -0.02068
 21 Cu    0.03647    0.01089   -0.02395
 22 Cu   -0.00901    0.00856    0.01343
 23 Cu   -0.01041   -0.01943    0.01990
 24 Cu   -0.01158   -0.01729    0.01153
 25 Cu    0.01333    0.00485   -0.00269
 26 Cu    0.01326    0.02260    0.02245
 27 Cu   -0.00441   -0.02658    0.00619
 28 Cu   -0.01380   -0.02287    0.03366
 29 Cu   -0.01171    0.01767    0.03722
 30 Cu    0.03837    0.02699   -0.05912
 31 Cu    0.00113    0.02124    0.03432
 32 Cu   -0.00613    0.00486    0.01119
 33 Cu    0.02928   -0.04182    0.02349
 34 Cu    0.00348    0.02070    0.04046
 35 Cu   -0.00266   -0.00190    0.01511
 36 Cu   -0.01064   -0.00949    0.03920
 37 Cu    0.00026    0.00677    0.04237
 38 Cu    0.01401    0.01234    0.02169
 39 Cu   -0.01374   -0.02088    0.04306
 40 Cu    0.00870   -0.01917    0.03030
 41 Cu    0.01921    0.01466    0.03438
 42 Cu   -0.00011   -0.06847   -0.03031
 43 Cu   -0.01039    0.02212   -0.04746
 44 Cu    0.01920    0.01727   -0.03444
 45 Cu    0.00814   -0.01389   -0.01054
 46 Cu    0.01776    0.00514    0.00325
 47 Cu    0.00667    0.01478   -0.01865
 48 Cu   -0.00515   -0.00142   -0.02357
 49 Cu   -0.00195    0.01640    0.00147
 50 Cu   -0.01478    0.01705   -0.00738
 51 Cu    0.00369    0.00456   -0.03043
 52 Cu   -0.00964   -0.00822   -0.01870
 53 Cu   -0.00595   -0.01541   -0.01709
 54 Cl    0.00377   -0.00391   -0.02117
 55 Cl   -0.00301   -0.02282    0.00080
 56 Cl   -0.26250    0.19735    0.07046
 57 Cl   -0.09418    0.00406   -0.05519
 58 Cl    0.10079    0.00831   -0.05923
 59 Cl    0.23060   -0.19462    0.07405

System changes: positions 

Initializing position-dependent things.

Density initialized from wave functions
                                       
                                       
                                       
                                       
                          Cl           
                                       
                 Cl                    
        Cl  Cu    Cu     Cu            
                Cu    Cu     Cu        
          Cu    Cu     Cu              
        Cu    CCu   Cu     Cu          
                     Cu                
            Cu    CCu    Cu            
          Cu    Cu    CCu    Cu        
                                       
        Cu    CCu   CCu    Cu          
            Cu    CCu   CCu            
                      Cu     Cu        
          Cu    Cu     Cu              
              CCu    Cu    Cu          
        Cu           Cu                
            Cul    Cu    Cu            
                    Cl                 
                                       
                          Cl           
                                       
                                       
                                       
                                       

Positions:
   0 Cu     1.855010    1.750714   10.084197    ( 0.0000,  0.0000,  0.0000)
   1 Cu     0.525055    0.453186   11.809240    ( 0.0000,  0.0000,  0.0000)
   2 Cu     3.207555    0.544918   11.874268    ( 0.0000,  0.0000,  0.0000)
   3 Cu     1.876958    1.805562   13.707170    ( 0.0000,  0.0000,  0.0000)
   4 Cu     0.589109    0.521659   15.549611    ( 0.0000,  0.0000,  0.0000)
   5 Cu     3.176048    0.522181   15.554368    ( 0.0000,  0.0000,  0.0000)
   6 Cu     1.883104    1.823055   17.490696    ( 0.0000,  0.0000,  0.0000)
   7 Cu     0.541954    0.502796   19.332745    ( 0.0000,  0.0000,  0.0000)
   8 Cu     3.220659    0.547312   19.332236    ( 0.0000,  0.0000,  0.0000)
[...]
  0   316     -0.78407    1.94851
  0   317     -0.56333    1.61255
  0   318     -0.43326    1.06255
  0   319     -0.41656    0.97916

  1   316     -0.77074    1.94138
  1   317     -0.62662    1.77369
  1   318     -0.41874    0.99003
  1   319     -0.40213    0.90727


Fermi level: -0.42073

No gap

Forces in eV/Ang:
  0 Cu   -0.00975   -0.00682    0.00318
  1 Cu   -0.00386   -0.00504    0.00062
  2 Cu    0.00151   -0.00057   -0.00867
  3 Cu   -0.00651   -0.00337   -0.00562
  4 Cu   -0.00451   -0.00401   -0.01322
  5 Cu   -0.00238    0.00131   -0.00490
  6 Cu   -0.00810   -0.00672    0.00358
  7 Cu    0.00574    0.00803    0.00168
  8 Cu   -0.00503   -0.00799    0.01203
  9 Cu    0.00738   -0.00033    0.00785
 10 Cu   -0.00864   -0.00164   -0.00260
 11 Cu   -0.00413    0.00462    0.00755
 12 Cu   -0.00351    0.00162   -0.00951
 13 Cu    0.01073    0.00530   -0.00182
 14 Cu    0.00221   -0.00998   -0.00706
 15 Cu    0.00110    0.00232   -0.00440
 16 Cu   -0.00483    0.00126   -0.00218
 17 Cu   -0.00197   -0.01134   -0.00003
 18 Cu   -0.00627   -0.00916   -0.01138
 19 Cu    0.02232    0.01269   -0.00067
 20 Cu   -0.00499   -0.00808   -0.01009
 21 Cu    0.00481    0.00312   -0.00421
 22 Cu    0.00546   -0.00915    0.00327
 23 Cu    0.00447    0.00467    0.00719
 24 Cu   -0.00741    0.00519    0.00555
 25 Cu    0.00970   -0.00482    0.00074
 26 Cu   -0.00571   -0.00131    0.00484
 27 Cu    0.00234    0.01920    0.00496
 28 Cu   -0.00710    0.00071    0.00865
 29 Cu   -0.00588   -0.00117    0.00836
 30 Cu    0.00208   -0.00633   -0.00612
 31 Cu   -0.00733   -0.00327   -0.01387
 32 Cu    0.00531    0.00533   -0.00064
 33 Cu   -0.00578   -0.00355   -0.01725
 34 Cu   -0.00009    0.00746    0.00438
 35 Cu    0.00160   -0.00019   -0.00201
 36 Cu    0.00709    0.01219   -0.00613
 37 Cu    0.00481    0.00386   -0.00714
 38 Cu   -0.00554   -0.00181   -0.00639
 39 Cu    0.00153   -0.00444   -0.01380
 40 Cu   -0.00086   -0.00713    0.00473
 41 Cu    0.00405   -0.00674    0.00029
 42 Cu   -0.00054    0.00912    0.00215
 43 Cu    0.00585    0.00136   -0.00191
 44 Cu   -0.00929    0.01375    0.00309
 45 Cu    0.01226    0.00316   -0.01042
 46 Cu   -0.00876   -0.01126   -0.00950
 47 Cu    0.01060   -0.00711   -0.00100
 48 Cu    0.00222    0.01209   -0.01053
 49 Cu    0.01064   -0.00362   -0.00842
 50 Cu    0.00217   -0.00541    0.01470
 51 Cu   -0.00041    0.00173    0.00889
 52 Cu   -0.00746    0.00675   -0.00266
 53 Cu    0.00647    0.00431    0.00114
 54 Cl    0.00324    0.00077    0.01668
 55 Cl   -0.00211    0.00398   -0.00044
 56 Cl    0.01238    0.01455    0.01415
 57 Cl   -0.03009    0.02058    0.00304
 58 Cl    0.01694   -0.02461    0.00784
 59 Cl   -0.01313   -0.01097    0.02478

System changes: positions 

Initializing position-dependent things.

Density initialized from wave functions
                                          
                                          
                                          
                                          
                             Cl           
                  Cl                      
                                          
        Cl   Cu    Cu    Cu               
           Cu    CCu   CCu   Cu           
                                          
          Cu   CCu    CCu   Cu            
             CCu   CCu    Cu              
                                          
           Cu    CCu   CCu   Cu           
          Cu   CCu    CCu   Cu            
                                          
             CCu   CCu   CCu              
           Cu    CCu   CCu   Cu           
                                          
          Cu   CCu   CuCu   Cu            
            ClCu    Cu     Cu             
                                          
                     Cl                   
                             Cl           
                                          
                                          
                                          
                                          

Positions:
   0 Cu     1.900877    1.856514   10.017242    ( 0.0000,  0.0000,  0.0000)
   1 Cu     0.572263    0.506565   11.883755    ( 0.0000,  0.0000,  0.0000)
   2 Cu     3.213566    0.524461   11.810387    ( 0.0000,  0.0000,  0.0000)
   3 Cu     1.889115    1.825608   13.690330    ( 0.0000,  0.0000,  0.0000)
   4 Cu     0.584854    0.519108   15.550589    ( 0.0000,  0.0000,  0.0000)
   5 Cu     3.184788    0.533419   15.543887    ( 0.0000,  0.0000,  0.0000)
   6 Cu     1.906740    1.841604   17.433509    ( 0.0000,  0.0000,  0.0000)
   7 Cu     0.597993    0.515174   19.244336    ( 0.0000,  0.0000,  0.0000)
   8 Cu     3.175267    0.534898   19.232327    ( 0.0000,  0.0000,  0.0000)
   9 Cu     0.559888    3.144484   11.843104    ( 0.0000,  0.0000,  0.0000)
  10 Cu     0.579611    3.130920   15.542694    ( 0.0000,  0.0000,  0.0000)
  11 Cu     0.605187    3.167520   19.240997    ( 0.0000,  0.0000,  0.0000)
  12 Cu     7.135788    1.827202   10.025218    ( 0.0000,  0.0000,  0.0000)
  13 Cu     5.805403    0.528179   11.822120    ( 0.0000,  0.0000,  0.0000)
  14 Cu     7.112034    1.834420   13.700178    ( 0.0000,  0.0000,  0.0000)
  15 Cu     5.806294    0.526463   15.535822    ( 0.0000,  0.0000,  0.0000)
  16 Cu     7.116876    1.817165   17.365912    ( 0.0000,  0.0000,  0.0000)
  17 Cu     5.810954    0.531834   19.257695    ( 0.0000,  0.0000,  0.0000)
  18 Cu     4.527469    1.781923    9.952560    ( 0.0000,  0.0000,  0.0000)
  19 Cu     4.446681    4.494335    9.957050    ( 0.0000,  0.0000,  0.0000)
  20 Cu     3.172752    3.136524   11.818513    ( 0.0000,  0.0000,  0.0000)
  21 Cu     5.815665    3.143451   11.817007    ( 0.0000,  0.0000,  0.0000)
  22 Cu     4.499023    1.844176   13.694763    ( 0.0000,  0.0000,  0.0000)
  23 Cu     4.490542    4.443116   13.684167    ( 0.0000,  0.0000,  0.0000)
  24 Cu     3.193725    3.148917   15.559375    ( 0.0000,  0.0000,  0.0000)
  25 Cu     5.805378    3.151094   15.540772    ( 0.0000,  0.0000,  0.0000)
  26 Cu     4.509060    1.841267   17.420119    ( 0.0000,  0.0000,  0.0000)
  27 Cu     4.508951    4.455057   17.424769    ( 0.0000,  0.0000,  0.0000)
  28 Cu     3.232542    3.096288   19.288381    ( 0.0000,  0.0000,  0.0000)
  29 Cu     5.835467    3.147335   19.217145    ( 0.0000,  0.0000,  0.0000)
  30 Cu     1.847275    4.453202   10.028251    ( 0.0000,  0.0000,  0.0000)
  31 Cu     1.880886    7.068533    9.994396    ( 0.0000,  0.0000,  0.0000)
  32 Cu     0.568878    5.772394   11.881654    ( 0.0000,  0.0000,  0.0000)
  33 Cu     3.180294    5.754200   11.822697    ( 0.0000,  0.0000,  0.0000)
  34 Cu     1.878564    4.442481   13.703544    ( 0.0000,  0.0000,  0.0000)
  35 Cu     1.882636    7.065330   13.709831    ( 0.0000,  0.0000,  0.0000)
  36 Cu     0.571970    5.754952   15.545914    ( 0.0000,  0.0000,  0.0000)
  37 Cu     3.185049    5.746699   15.548878    ( 0.0000,  0.0000,  0.0000)
  38 Cu     1.870194    4.448974   17.429250    ( 0.0000,  0.0000,  0.0000)
  39 Cu     1.880612    7.060006   17.425124    ( 0.0000,  0.0000,  0.0000)
  40 Cu     0.554241    5.757576   19.223655    ( 0.0000,  0.0000,  0.0000)
  41 Cu     3.166383    5.804886   19.295823    ( 0.0000,  0.0000,  0.0000)
  42 Cu     7.074058    4.419609   10.002989    ( 0.0000,  0.0000,  0.0000)
  43 Cu     7.097838    7.068794    9.997862    ( 0.0000,  0.0000,  0.0000)
  44 Cu     5.778975    5.751784   11.808925    ( 0.0000,  0.0000,  0.0000)
  45 Cu     7.103793    4.461115   13.704971    ( 0.0000,  0.0000,  0.0000)
  46 Cu     7.103417    7.071377   13.697273    ( 0.0000,  0.0000,  0.0000)
  47 Cu     5.795469    5.766530   15.558754    ( 0.0000,  0.0000,  0.0000)
  48 Cu     7.124546    4.447240   17.404994    ( 0.0000,  0.0000,  0.0000)
  49 Cu     7.120085    7.086916   17.361920    ( 0.0000,  0.0000,  0.0000)
  50 Cu     5.790407    5.740850   19.220760    ( 0.0000,  0.0000,  0.0000)
  51 Cu     4.513070    7.061433   10.000780    ( 0.0000,  0.0000,  0.0000)
  52 Cu     4.504014    7.057782   13.704614    ( 0.0000,  0.0000,  0.0000)
  53 Cu     4.471979    7.064756   17.433439    ( 0.0000,  0.0000,  0.0000)
  54 Cl     3.198499    4.442979   21.188809    ( 0.0000,  0.0000,  0.0000)
  55 Cl     4.520410    3.144412    8.058729    ( 0.0000,  0.0000,  0.0000)
  56 Cl     0.424982    5.658992    8.267513    ( 0.0000,  0.0000,  0.0000)
  57 Cl    -0.566424    1.870591   20.974059    ( 0.0000,  0.0000,  0.0000)
  58 Cl     7.007721    7.027676   20.964277    ( 0.0000,  0.0000,  0.0000)
  59 Cl     8.559316    0.612429    8.266834    ( 0.0000,  0.0000,  0.0000)

Unit cell:
           periodic     x           y           z      points  spacing
  1. axis:    yes    7.851007    0.000000    0.000000    45     0.1655
  2. axis:    yes    2.617002    7.851007    0.000000    48     0.1636
  3. axis:    yes    0.000000    0.000000   30.683867   175     0.1753

  Lengths:   7.851007   8.275688  30.683867
  Angles:   90.000000  90.000000  71.565053

Effective grid spacing dv^(1/3) = 0.1710

     iter     time        total  log10-change:
                         energy  eigst   dens
iter:   1 22:11:36 -4309.779820  -3.56
iter:   2 22:12:46 -4309.781897  -3.70  -2.83
iter:   3 22:13:40 -4309.711650c -4.39  -2.85
iter:   4 22:14:30 -4309.709598c -5.08  -3.42
iter:   5 22:15:26 -4309.709342c -5.12  -3.65
iter:   6 22:16:10 -4309.709067c -5.97  -3.96
iter:   7 22:16:53 -4309.709166c -5.84  -4.12c
iter:   8 22:17:37 -4309.709146c -7.17  -4.24c
iter:   9 22:18:23 -4309.709037c -6.30  -4.34c
iter:  10 22:19:10 -4309.709040c -6.83  -4.60c
iter:  11 22:19:54 -4309.709033c -6.93  -4.60c
iter:  12 22:20:38 -4309.709032c -8.30c -4.87c

Converged after 12 iterations.

Dipole moment: (-23.273832, -31.432689, 0.006744) |e|*Ang

Energy contributions relative to reference atoms: (reference = -2506488.095795)

Kinetic:       +442.989645
Potential:     -482.382171
External:        +0.000000
XC:            -4269.191099
Entropy (-ST):   -0.610530
Local:           -0.820142
--------------------------
Free energy:   -4310.014297
Extrapolated:  -4309.709032

Showing only first 2 kpts
 Kpt  Band  Eigenvalues  Occupancy
  0   316     -0.78205    1.94801
  0   317     -0.56235    1.61268
  0   318     -0.43294    1.06611
  0   319     -0.41556    0.97929

  1   316     -0.76765    1.94020
  1   317     -0.62517    1.77283
  1   318     -0.41699    0.98641
  1   319     -0.40207    0.91207


Fermi level: -0.41970

No gap

Forces in eV/Ang:
  0 Cu   -0.00001    0.00112    0.00440
  1 Cu   -0.00447   -0.00420   -0.00444
  2 Cu    0.00469    0.00789   -0.00170
  3 Cu    0.00451    0.00208   -0.00367
  4 Cu   -0.00196    0.00039    0.00153
  5 Cu   -0.00217    0.00184   -0.00358
  6 Cu   -0.00247   -0.00060   -0.00035
  7 Cu   -0.00677    0.00556    0.00456
  8 Cu    0.00253   -0.00920    0.01081
  9 Cu    0.00446   -0.00044   -0.00908
 10 Cu    0.00131    0.00006   -0.00678
 11 Cu   -0.00818    0.00018    0.00101
 12 Cu   -0.00985    0.01231   -0.00651
 13 Cu   -0.00059    0.00561   -0.00645
 14 Cu   -0.00121    0.00681   -0.00198
 15 Cu   -0.00188   -0.00060    0.00072
 16 Cu   -0.00523   -0.00070    0.00285
 17 Cu    0.00177   -0.00916   -0.00398
 18 Cu   -0.00972    0.00194   -0.00907
 19 Cu    0.01403   -0.00054   -0.00714
 20 Cu    0.00547    0.00178   -0.00362
 21 Cu   -0.00378   -0.00465   -0.00023
 22 Cu   -0.00404    0.00136   -0.00184
 23 Cu    0.00153   -0.00161   -0.00518
 24 Cu   -0.00164    0.00184    0.00191
 25 Cu   -0.00206   -0.00229   -0.00206
 26 Cu   -0.00495    0.00472    0.00512
 27 Cu    0.00193   -0.00042    0.00501
 28 Cu   -0.00469    0.00397    0.00219
 29 Cu   -0.00515   -0.00256   -0.00287
 30 Cu    0.00808   -0.00521   -0.01157
 31 Cu   -0.00816   -0.00682   -0.00452
 32 Cu   -0.00227    0.00764   -0.00578
 33 Cu    0.00119   -0.00861    0.00069
 34 Cu    0.00893   -0.00553    0.00004
 35 Cu   -0.00251   -0.00270   -0.00256
 36 Cu    0.00923    0.00286   -0.00043
 37 Cu    0.00610    0.00059    0.00450
 38 Cu   -0.00259   -0.00267    0.00583
 39 Cu    0.00850    0.00027    0.00545
 40 Cu    0.00621   -0.00092   -0.00189
 41 Cu   -0.00242   -0.00233   -0.00061
 42 Cu    0.00545    0.00283    0.00136
 43 Cu    0.00015   -0.00073    0.00094
 44 Cu    0.00490    0.00134   -0.00021
 45 Cu   -0.00155   -0.00256   -0.00777
 46 Cu   -0.00561    0.00319   -0.00856
 47 Cu    0.00140   -0.00232   -0.00508
 48 Cu   -0.00041   -0.00110    0.00339
 49 Cu    0.00115    0.00135    0.00228
 50 Cu    0.00597    0.00312    0.01018
 51 Cu    0.00479   -0.00286    0.00148
 52 Cu    0.00165    0.00067   -0.00574
 53 Cu    0.00243    0.00004   -0.00361
 54 Cl    0.00190    0.00143    0.00701
 55 Cl   -0.00280    0.00410    0.00704
 56 Cl    0.00871    0.00463    0.01176
 57 Cl   -0.00302    0.01324   -0.00176
 58 Cl   -0.00677   -0.01915    0.00521
 59 Cl   -0.01318   -0.00841    0.00552

Timing:                                      incl.     excl.
-------------------------------------------------------------------
Density initialized from wave functions:   138.584   138.582   0.5% |
 Symmetrize density:                         0.002     0.002   0.0% |
Forces:                                    673.926   673.926   2.4% ||
Hamiltonian:                               252.209     0.561   0.0% |
 Atomic:                                     6.016     1.464   0.0% |
  XC Correction:                             4.552     4.552   0.0% |
 Calculate atomic Hamiltonians:             58.193    58.193   0.2% |
 Communicate:                                7.522     7.522   0.0% |
 Initialize Hamiltonian:                     0.003     0.003   0.0% |
 Poisson:                                    0.176     0.176   0.0% |
 XC 3D grid:                               179.739    26.472   0.1% |
  VdW-DF integral:                         153.267     6.363   0.0% |
   Convolution:                             10.077    10.077   0.0% |
   FFT:                                      5.472     5.472   0.0% |
   gather:                                  47.447    47.447   0.2% |
   hmm1:                                     3.107     3.107   0.0% |
   hmm2:                                     7.976     7.976   0.0% |
   iFFT:                                     5.822     5.822   0.0% |
   potential:                               61.885     0.726   0.0% |
    collect:                                 8.414     8.414   0.0% |
    p1:                                     30.800    30.800   0.1% |
    p2:                                     11.332    11.332   0.0% |
    sum:                                    10.612    10.612   0.0% |
   splines:                                  5.118     5.118   0.0% |
LCAO initialization:                       223.888     0.520   0.0% |
 LCAO eigensolver:                          10.612     0.002   0.0% |
  Blacs Orbital Layouts:                     0.654     0.001   0.0% |
   General diagonalize:                      0.642     0.642   0.0% |
   Redistribute coefs:                       0.007     0.007   0.0% |
   Send coefs to domains:                    0.004     0.004   0.0% |
  Calculate projections:                     0.007     0.007   0.0% |
  Distribute overlap matrix:                 9.713     0.001   0.0% |
   Scalapack redistribute:                   0.019     0.019   0.0% |
   blocked summation:                        9.692     9.692   0.0% |
  Potential matrix:                          0.116     0.116   0.0% |
  SparseAtomicCorrection:                    0.011     0.011   0.0% |
  Sum over cells:                            0.108     0.108   0.0% |
 LCAO to grid:                             210.547   210.547   0.8% |
 Set positions (LCAO WFS):                   2.208     0.014   0.0% |
  Basic WFS set positions:                   0.003     0.003   0.0% |
  Basis functions set positions:             0.000     0.000   0.0% |
  P tci:                                     0.000     0.000   0.0% |
  ST tci:                                    0.390     0.390   0.0% |
  Scalapack redistribute:                    0.023     0.023   0.0% |
  blocked summation:                         1.620     1.620   0.0% |
  mktci:                                     0.158     0.158   0.0% |
PWDescriptor:                                1.355     1.355   0.0% |
Redistribute:                                0.034     0.034   0.0% |
SCF-cycle:                               26432.761   417.328   1.5% ||
 Davidson:                               20145.591  5204.490  18.6% |------|
  Apply H:                                1992.603  1959.449   7.0% |--|
   HMM T:                                   33.154    33.154   0.1% |
  Subspace diag:                          3438.175     0.119   0.0% |
   calc_h_matrix:                         2528.941   566.664   2.0% ||
    Apply H:                              1962.277  1927.926   6.9% |--|
     HMM T:                                 34.350    34.350   0.1% |
   diagonalize:                             96.783    96.783   0.3% |
   rotate_psi:                             812.333   812.333   2.9% ||
  calc. matrices:                         7437.690  3559.593  12.7% |----|
   Apply H:                               3878.097  3812.284  13.6% |----|
    HMM T:                                  65.813    65.813   0.2% |
  diagonalize:                             587.773   587.773   2.1% ||
  rotate_psi:                             1484.859  1484.859   5.3% |-|
 Density:                                 2120.303     0.025   0.0% |
  Atomic density matrices:                   6.154     6.154   0.0% |
  Mix:                                    1070.538  1070.538   3.8% |-|
  Multipole moments:                         0.507     0.507   0.0% |
  Pseudo density:                         1043.078  1043.056   3.7% ||
   Symmetrize density:                       0.023     0.023   0.0% |
 Hamiltonian:                             3617.628     8.340   0.0% |
  Atomic:                                   86.019    18.533   0.1% |
   XC Correction:                           67.486    67.486   0.2% |
  Calculate atomic Hamiltonians:           855.204   855.204   3.1% ||
  Communicate:                             102.154   102.154   0.4% |
  Poisson:                                   2.692     2.692   0.0% |
  XC 3D grid:                             2563.219   366.382   1.3% ||
   VdW-DF integral:                       2196.837    88.904   0.3% |
    Convolution:                           137.344   137.344   0.5% |
    FFT:                                    80.564    80.564   0.3% |
    gather:                                733.136   733.136   2.6% ||
    hmm1:                                   43.695    43.695   0.2% |
    hmm2:                                  114.358   114.358   0.4% |
    iFFT:                                   84.307    84.307   0.3% |
    potential:                             914.525    10.668   0.0% |
     collect:                              127.595   127.595   0.5% |
     p1:                                   446.471   446.471   1.6% ||
     p2:                                   160.656   160.656   0.6% |
     sum:                                  169.135   169.135   0.6% |
    splines:                                 0.005     0.005   0.0% |
 Orthonormalize:                           131.911     0.013   0.0% |
  calc_s_matrix:                            17.317    17.317   0.1% |
  inverse-cholesky:                          4.412     4.412   0.0% |
  projections:                              83.653    83.653   0.3% |
  rotate_psi_s:                             26.516    26.516   0.1% |
Set symmetry:                                0.001     0.001   0.0% |
Other:                                     214.642   214.642   0.8% |
-------------------------------------------------------------------
Total:                                             27937.401 100.0%

Memory usage: 1.35 GiB
Date: Mon Oct 17 22:20:56 2022
