
  ___ ___ ___ _ _ _  
 |   |   |_  | | | | 
 | | | | | . | | | | 
 |__ |  _|___|_____|  22.1.0
 |___|_|             

User:   thorkong@node499.cluster
Date:   Sat Oct 15 10:13:04 2022
Arch:   x86_64
Pid:    21581
Python: 3.10.5
gpaw:   /groups/kemi/thorkong/miniconda3/envs/gpaw22/lib/python3.10/site-packages/gpaw
_gpaw:  /groups/kemi/thorkong/miniconda3/envs/gpaw22/lib/python3.10/site-packages/
        _gpaw.cpython-310-x86_64-linux-gnu.so
ase:    /groups/kemi/thorkong/miniconda3/envs/gpaw22/lib/python3.10/site-packages/ase (version 3.22.1)
numpy:  /groups/kemi/thorkong/miniconda3/envs/gpaw22/lib/python3.10/site-packages/numpy (version 1.23.0)
scipy:  /groups/kemi/thorkong/miniconda3/envs/gpaw22/lib/python3.10/site-packages/scipy (version 1.8.1)
libxc:  5.2.3
units:  Angstrom and eV
cores: 32
OpenMP: True
OMP_NUM_THREADS: 1

Input parameters:
  basis: dzp
  kpts: [4 4 1]
  mode: {ecut: 600.0,
         name: pw}
  xc: BEEF-vdW

System changes: positions, numbers, cell, pbc, initial_charges, initial_magmoms 

Initialize ...

Cu-setup:
  name: Copper
  id: f1c4d45d90492f1bbfdcb091e8418fdf
  Z: 29.0
  valence: 11
  core: 18
  charge: 0.0
  file: /groups/kemi/thorkong/miniconda3/envs/gpaw22/share/gpaw/Cu.PBE.gz
  compensation charges: gauss, rc=0.33, lmax=2
  cutoffs: 2.06(filt), 2.43(core),
  valence states:
                energy  radius
    4s(1.00)    -4.609   1.164
    4p(0.00)    -0.698   1.164
    3d(10.00)    -5.039   1.058
    *s          22.603   1.164
    *p          26.513   1.164
    *d          22.172   1.058

  LCAO basis set for Cu:
    Name: dzp
    File: /groups/kemi/thorkong/miniconda3/envs/gpaw22/share/gpaw/Cu.dzp.basis.gz
    Number of radial functions: 5
    Number of spherical harmonics: 15
      l=0, rc=8.9688 Bohr: 4s-sz confined orbital
      l=2, rc=5.1719 Bohr: 3d-sz confined orbital
      l=0, rc=5.3281 Bohr: 4s-dz split-valence wave
      l=2, rc=3.1406 Bohr: 3d-dz split-valence wave
      l=1, rc=8.9688 Bohr: p-type Gaussian polarization

Cl-setup:
  name: Chlorine
  id: 726897f06f34e53cf8e33b5885a02604
  Z: 17.0
  valence: 7
  core: 10
  charge: 0.0
  file: /groups/kemi/thorkong/miniconda3/envs/gpaw22/share/gpaw/Cl.PBE.gz
  compensation charges: gauss, rc=0.25, lmax=2
  cutoffs: 1.40(filt), 1.49(core),
  valence states:
                energy  radius
    3s(2.00)   -20.689   0.794
    3p(5.00)    -8.594   0.794
    *s           6.523   0.794
    *p          18.617   0.794
    *d           0.000   0.794

  LCAO basis set for Cl:
    Name: dzp
    File: /groups/kemi/thorkong/miniconda3/envs/gpaw22/share/gpaw/Cl.dzp.basis.gz
    Number of radial functions: 5
    Number of spherical harmonics: 13
      l=0, rc=5.1719 Bohr: 3s-sz confined orbital
      l=1, rc=6.2656 Bohr: 3p-sz confined orbital
      l=0, rc=2.8281 Bohr: 3s-dz split-valence wave
      l=1, rc=3.5156 Bohr: 3p-dz split-valence wave
      l=2, rc=6.2656 Bohr: d-type Gaussian polarization

Reference energy: -4422498.971913

Spin-paired calculation

Convergence criteria:
 Maximum [total energy] change in last 3 cyles: 0.0005 eV / electron
 Maximum integral of absolute [dens]ity change: 0.0001 electrons / valence electron
 Maximum integral of absolute [eigenst]ate change: 4e-08 eV^2 / valence electron
 Maximum number of scf [iter]ations: 333
 (Square brackets indicate name in SCF output, whereas a 'c' in
 the SCF output indicates the quantity has converged.)

Symmetries present (total): 1

  ( 1  0  0)
  ( 0  1  0)
  ( 0  0  1)

16 k-points: 4 x 4 x 1 Monkhorst-Pack grid
8 k-points in the irreducible part of the Brillouin zone
       k-points in crystal coordinates                weights
   0:     0.12500000   -0.37500000    0.00000000          2/16
   1:     0.12500000   -0.12500000    0.00000000          2/16
   2:     0.12500000    0.12500000    0.00000000          2/16
   3:     0.12500000    0.37500000    0.00000000          2/16
   4:     0.37500000   -0.37500000    0.00000000          2/16
   5:     0.37500000   -0.12500000    0.00000000          2/16
   6:     0.37500000    0.12500000    0.00000000          2/16
   7:     0.37500000    0.37500000    0.00000000          2/16

Wave functions: Plane wave expansion
  Cutoff energy: 600.000 eV
  Number of coefficients (min, max): 96699, 96750
  Pulay-stress correction: 0.000000 eV/Ang^3 (de/decut=0.000000)
  Using FFTW library
  ScaLapack parameters: grid=2x2, blocksize=64
  Wavefunction extrapolation:
    Improved wavefunction reuse through dual PAW basis 

Occupation numbers: Fermi-Dirac: width=0.1000 eV
 

Eigensolver
   Davidson(niter=2) 

Densities:
  Coarse grid: 70*42*192 grid
  Fine grid: 140*84*384 grid
  Total Charge: 0.000000 

Density mixing:
  Method: separate
  Backend: pulay
  Linear mixing parameter: 0.05
  Mixing with 5 old densities
  Damping of long wave oscillations: 50 

Hamiltonian:
  XC and Coulomb potentials evaluated on a 140*84*384 grid
  Using the BEEF-vdW Exchange-Correlation functional
  External potential:
    NoExternalPotential
 

XC parameters: BEEF-vdW with 2 nearest neighbor stencil

Memory estimate:
  Process memory now: 349.09 MiB
  Calculator: 2180.95 MiB
    Density: 70.86 MiB
      Arrays: 27.99 MiB
      Localized functions: 32.10 MiB
      Mixer: 10.77 MiB
    Hamiltonian: 19.09 MiB
      Arrays: 18.30 MiB
      XC: 0.00 MiB
      Poisson: 0.00 MiB
      vbar: 0.78 MiB
    Wavefunctions: 2091.01 MiB
      Arrays psit_nG: 992.07 MiB
      Eigensolver: 1068.37 MiB
      Projections: 4.70 MiB
      Projectors: 3.69 MiB
      PW-descriptor: 22.18 MiB

Total number of cores used: 32
Parallelization over k-points: 8
Domain decomposition: 1 x 1 x 4
                      2 x 2 x 8 (xc only)

Number of atoms: 104
Number of atomic orbitals: 1544
Number of bands in calculation: 672
Number of valence electrons: 1112
Bands to converge: occupied

... initialized

Initializing position-dependent things.

Density initialized from atomic densities
Creating initial wave functions:
  672 bands from LCAO basis set

      .----------------------------.  
     /|                            |  
    / |                            |  
   /  |                            |  
  /   |                            |  
 *    |                            |  
 |    |                            |  
 |    |                            |  
 |    |                            |  
 |    |                            |  
 |    |                            |  
 |    |                            |  
 |    |             Cl             |  
 |    |  Cl   Cu                  Cu  
 | Cl |                     Cu     |  
 |    | Cu             Cu       Cu |  
 |    |    Cu    Cu  Cl   Cu   Cu  |  
 |    Cu   Cu       Cu    Cu       |  
 |    Cu   Cu  Cu   Cu    Cu       |  
 |   Cu  Cu   Cu    Cu Cu    Cu    |  
 |    |  Cu   Cu       Cu    Cu    |  
 | Cu | Cu    Cu  Cu   Cu    Cu    |  
 | Cu | Cu  Cu   Cu    Cu Cu       |  
 |    |     Cu   Cu       Cu    Cu |  
 |    Cu   Cu    Cu Cu    Cu    Cu |  
 |    Cu   Cu  Cu   Cu    Cu Cu    |  
 |   CCu       Cu   Cu    Cu Cu    |  
 |    |  Cu   Cu       Cu    Cu   Cu  
 | Cu |  Cu   Cu  Cu   Cu    Cu    |  
 | Cu | Cu  Cu   Cu    Cu Cu Cu    |  
 |    |     Cu   Cu       Cu    Cu |  
 |    CuCl  Cu   Cl       Cu       |  
 |    Cu       Cu   Cu             |  
 |    |             Cl             |  
 |    |  Cu                  Cl    |  
 |    |                            |  
 |    |                            |  
 |    |                            |  
 |    |                            |  
 |    |                            |  
 |    |                            |  
 |    .----------------------------.  
 |   /                            /   
 |  /                            /    
 | /                            /     
 |/                            /      
 *----------------------------*       

Positions:
   0 Cu     3.101501    0.136212   10.060802    ( 0.0000,  0.0000,  0.0000)
   1 Cu     1.403796    1.918301   10.547539    ( 0.0000,  0.0000,  0.0000)
   2 Cu     7.388300    1.764651   10.644710    ( 0.0000,  0.0000,  0.0000)
   3 Cu     9.121302   -0.063103   10.042010    ( 0.0000,  0.0000,  0.0000)
   4 Cu    11.431428   -0.048275   11.144375    ( 0.0000,  0.0000,  0.0000)
   5 Cu     9.703152    1.857312   11.730114    ( 0.0000,  0.0000,  0.0000)
   6 Cu     3.788817    1.864150   11.773675    ( 0.0000,  0.0000,  0.0000)
   7 Cu     5.538453    0.080249   11.139752    ( 0.0000,  0.0000,  0.0000)
   8 Cu     7.894649   -0.016682   12.348887    ( 0.0000,  0.0000,  0.0000)
   9 Cu     6.135246    1.856460   12.930660    ( 0.0000,  0.0000,  0.0000)
  10 Cu     0.275121    1.867966   12.911856    ( 0.0000,  0.0000,  0.0000)
  11 Cu     2.029236    0.015552   12.354672    ( 0.0000,  0.0000,  0.0000)
  12 Cu     4.373851    0.011603   13.511669    ( 0.0000,  0.0000,  0.0000)
  13 Cu     2.614524    1.857419   14.110976    ( 0.0000,  0.0000,  0.0000)
  14 Cu     8.479403    1.850968   14.078812    ( 0.0000,  0.0000,  0.0000)
  15 Cu    10.239431    0.009060   13.514186    ( 0.0000,  0.0000,  0.0000)
  16 Cu     0.860137    0.013667   14.674595    ( 0.0000,  0.0000,  0.0000)
  17 Cu    10.806029    1.859201   15.263430    ( 0.0000,  0.0000,  0.0000)
  18 Cu     4.954045    1.857206   15.271317    ( 0.0000,  0.0000,  0.0000)
  19 Cu     6.713536    0.006451   14.678589    ( 0.0000,  0.0000,  0.0000)
  20 Cu     9.044396    0.005377   15.853530    ( 0.0000,  0.0000,  0.0000)
  21 Cu     7.283251    1.859901   16.424461    ( 0.0000,  0.0000,  0.0000)
  22 Cu     1.432419    1.856245   16.445623    ( 0.0000,  0.0000,  0.0000)
  23 Cu     3.192139    0.001219   15.852102    ( 0.0000,  0.0000,  0.0000)
  24 Cu     5.526657    0.004070   17.018916    ( 0.0000,  0.0000,  0.0000)
  25 Cu     3.768514    1.858504   17.606896    ( 0.0000,  0.0000,  0.0000)
  26 Cu     9.616589    1.848836   17.602345    ( 0.0000,  0.0000,  0.0000)
  27 Cu    11.379303    0.011076   17.024830    ( 0.0000,  0.0000,  0.0000)
  28 Cu     2.006784    0.003014   18.188861    ( 0.0000,  0.0000,  0.0000)
  29 Cu     0.244644    1.861809   18.786091    ( 0.0000,  0.0000,  0.0000)
  30 Cu     6.099598    1.856852   18.774487    ( 0.0000,  0.0000,  0.0000)
  31 Cu     7.855093    0.010910   18.190257    ( 0.0000,  0.0000,  0.0000)
  32 Cu    10.183873    0.001282   19.375022    ( 0.0000,  0.0000,  0.0000)
  33 Cu     8.437450    1.860134   19.946940    ( 0.0000,  0.0000,  0.0000)
  34 Cu     2.569835    1.858561   19.941572    ( 0.0000,  0.0000,  0.0000)
  35 Cu     4.342140    0.003729   19.348794    ( 0.0000,  0.0000,  0.0000)
  36 Cu     6.682979    0.016537   20.543884    ( 0.0000,  0.0000,  0.0000)
  37 Cu     4.913919    1.830901   21.103816    ( 0.0000,  0.0000,  0.0000)
  38 Cu    10.780674    1.864237   21.105171    ( 0.0000,  0.0000,  0.0000)
  39 Cu     0.822499    0.004116   20.525279    ( 0.0000,  0.0000,  0.0000)
  40 Cu     3.166840    0.010186   21.686583    ( 0.0000,  0.0000,  0.0000)
  41 Cu     1.377422    1.801518   22.313849    ( 0.0000,  0.0000,  0.0000)
  42 Cu     7.269521    1.927631   22.314363    ( 0.0000,  0.0000,  0.0000)
  43 Cu     8.958955    0.004788   21.724484    ( 0.0000,  0.0000,  0.0000)
  44 Cu    11.273634   -0.090450   22.809450    ( 0.0000,  0.0000,  0.0000)
  45 Cu     9.711532    1.977670   23.397657    ( 0.0000,  0.0000,  0.0000)
  46 Cu     3.685831    1.787239   23.413697    ( 0.0000,  0.0000,  0.0000)
  47 Cu     5.549002    0.065386   22.909661    ( 0.0000,  0.0000,  0.0000)
  48 Cu     3.269507    3.637897   10.042010    ( 0.0000,  0.0000,  0.0000)
  49 Cu     1.536505    5.465651   10.644710    ( 0.0000,  0.0000,  0.0000)
  50 Cu     7.255591    5.619301   10.547539    ( 0.0000,  0.0000,  0.0000)
  51 Cu     8.953296    3.837212   10.060802    ( 0.0000,  0.0000,  0.0000)
  52 Cu    11.390248    3.781249   11.139752    ( 0.0000,  0.0000,  0.0000)
  53 Cu     9.640612    5.565150   11.773675    ( 0.0000,  0.0000,  0.0000)
  54 Cu     3.851357    5.558312   11.730114    ( 0.0000,  0.0000,  0.0000)
  55 Cu     5.579633    3.652725   11.144375    ( 0.0000,  0.0000,  0.0000)
  56 Cu     7.881031    3.716552   12.354672    ( 0.0000,  0.0000,  0.0000)
  57 Cu     6.126916    5.568966   12.911856    ( 0.0000,  0.0000,  0.0000)
  58 Cu     0.283451    5.557460   12.930660    ( 0.0000,  0.0000,  0.0000)
  59 Cu     2.042854    3.684318   12.348887    ( 0.0000,  0.0000,  0.0000)
  60 Cu     4.387636    3.710060   13.514186    ( 0.0000,  0.0000,  0.0000)
  61 Cu     2.627608    5.551968   14.078812    ( 0.0000,  0.0000,  0.0000)
  62 Cu     8.466319    5.558419   14.110976    ( 0.0000,  0.0000,  0.0000)
  63 Cu    10.225646    3.712603   13.511669    ( 0.0000,  0.0000,  0.0000)
  64 Cu     0.861741    3.707452   14.678589    ( 0.0000,  0.0000,  0.0000)
  65 Cu    10.805840    5.558206   15.271317    ( 0.0000,  0.0000,  0.0000)
  66 Cu     4.954234    5.560201   15.263430    ( 0.0000,  0.0000,  0.0000)
  67 Cu     6.711932    3.714667   14.674595    ( 0.0000,  0.0000,  0.0000)
  68 Cu     9.043934    3.702219   15.852102    ( 0.0000,  0.0000,  0.0000)
  69 Cu     7.284214    5.557245   16.445623    ( 0.0000,  0.0000,  0.0000)
  70 Cu     1.431456    5.560901   16.424461    ( 0.0000,  0.0000,  0.0000)
  71 Cu     3.192601    3.706377   15.853530    ( 0.0000,  0.0000,  0.0000)
  72 Cu     5.527508    3.712076   17.024830    ( 0.0000,  0.0000,  0.0000)
  73 Cu     3.764794    5.549836   17.602346    ( 0.0000,  0.0000,  0.0000)
  74 Cu     9.620309    5.559504   17.606896    ( 0.0000,  0.0000,  0.0000)
  75 Cu    11.378452    3.705070   17.018916    ( 0.0000,  0.0000,  0.0000)
  76 Cu     2.003298    3.711910   18.190257    ( 0.0000,  0.0000,  0.0000)
  77 Cu     0.247803    5.557852   18.774487    ( 0.0000,  0.0000,  0.0000)
  78 Cu     6.096438    5.562808   18.786091    ( 0.0000,  0.0000,  0.0000)
  79 Cu     7.858579    3.704014   18.188861    ( 0.0000,  0.0000,  0.0000)
  80 Cu    10.193935    3.704729   19.348794    ( 0.0000,  0.0000,  0.0000)
  81 Cu     8.421630    5.559561   19.941572    ( 0.0000,  0.0000,  0.0000)
  82 Cu     2.585655    5.561134   19.946940    ( 0.0000,  0.0000,  0.0000)
  83 Cu     4.332078    3.702282   19.375022    ( 0.0000,  0.0000,  0.0000)
  84 Cu     6.674294    3.705116   20.525279    ( 0.0000,  0.0000,  0.0000)
  85 Cu     4.928879    5.565237   21.105171    ( 0.0000,  0.0000,  0.0000)
  86 Cu    10.765714    5.531901   21.103816    ( 0.0000,  0.0000,  0.0000)
  87 Cu     0.831184    3.717537   20.543885    ( 0.0000,  0.0000,  0.0000)
  88 Cu     3.107160    3.705788   21.724485    ( 0.0000,  0.0000,  0.0000)
  89 Cu     1.417726    5.628631   22.314363    ( 0.0000,  0.0000,  0.0000)
  90 Cu     7.229217    5.502518   22.313849    ( 0.0000,  0.0000,  0.0000)
  91 Cu     9.018635    3.711186   21.686582    ( 0.0000,  0.0000,  0.0000)
  92 Cu    11.400797    3.766386   22.909662    ( 0.0000,  0.0000,  0.0000)
  93 Cu     9.537625    5.488239   23.413696    ( 0.0000,  0.0000,  0.0000)
  94 Cu     3.859737    5.678670   23.397657    ( 0.0000,  0.0000,  0.0000)
  95 Cu     5.421839    3.610550   22.809450    ( 0.0000,  0.0000,  0.0000)
  96 Cl     6.204015    5.065844   24.973705    ( 0.0000,  0.0000,  0.0000)
  97 Cl     2.091234    3.977029   24.570226    ( 0.0000,  0.0000,  0.0000)
  98 Cl     7.943029    0.276030   24.570226    ( 0.0000,  0.0000,  0.0000)
  99 Cl    12.055809    1.364844   24.973705    ( 0.0000,  0.0000,  0.0000)
 100 Cl     6.612666    3.234845    8.486737    ( 0.0000,  0.0000,  0.0000)
 101 Cl     4.851494    5.828023    8.881486    ( 0.0000,  0.0000,  0.0000)
 102 Cl     0.760871   -0.466155    8.486737    ( 0.0000,  0.0000,  0.0000)
 103 Cl    -1.000301    2.127023    8.881486    ( 0.0000,  0.0000,  0.0000)

Unit cell:
           periodic     x           y           z      points  spacing
  1. axis:    yes   11.703590    0.000000    0.000000    70     0.1672
  2. axis:    yes    0.000000    7.402000    0.000000    42     0.1762
  3. axis:    no     0.000000    0.000000   33.459128   192     0.1743

  Lengths:  11.703590   7.402000  33.459128
  Angles:   90.000000  90.000000  90.000000

Effective grid spacing dv^(1/3) = 0.1725

     iter     time        total  log10-change:
                         energy  eigst   dens
iter:   1 10:35:28 -7838.181208
iter:   2 10:39:01 -8216.191113  +1.05  -0.91
iter:   3 10:42:35 -7723.587399  +0.53  -0.82
iter:   4 10:46:08 -7622.591540  -1.06  -1.14
iter:   5 10:49:42 -7617.369217  -1.36  -1.35
iter:   6 10:53:15 -7602.337043  -2.21  -1.34
iter:   7 10:56:49 -7587.918302  -2.40  -1.42
iter:   8 11:00:24 -7568.624662  -1.57  -1.50
iter:   9 11:04:00 -7567.857399  -2.36  -1.64
iter:  10 11:07:35 -7568.843563  -2.54  -1.66
iter:  11 11:11:11 -7565.312045  -1.69  -1.68
iter:  12 11:14:49 -7566.094306  -2.18  -1.81
iter:  13 11:18:25 -7564.009877  -1.96  -1.88
iter:  14 11:22:02 -7562.475145  -2.42  -2.12
iter:  15 11:25:38 -7561.940863  -3.37  -2.33
iter:  16 11:29:16 -7561.699988  -3.28  -2.47
iter:  17 11:32:52 -7561.959017c -2.58  -2.55
iter:  18 11:36:28 -7561.711900c -3.73  -2.83
iter:  19 11:40:04 -7561.642914c -4.00  -2.88
iter:  20 11:43:41 -7561.594833c -3.60  -2.91
iter:  21 11:47:18 -7561.591144c -4.96  -3.04
iter:  22 11:50:57 -7561.591486c -4.29  -3.11
iter:  23 11:54:34 -7561.594110c -5.26  -3.18
iter:  24 11:58:09 -7561.591933c -5.74  -3.19
iter:  25 12:01:45 -7561.590006c -5.07  -3.23
iter:  26 12:05:21 -7561.582509c -4.82  -3.25
iter:  27 12:08:56 -7561.581905c -6.00  -3.46
iter:  28 12:12:30 -7561.581962c -5.72  -3.50
iter:  29 12:16:03 -7561.581720c -5.86  -3.63
iter:  30 12:19:36 -7561.581165c -6.45  -4.07c
iter:  31 12:23:10 -7561.580977c -6.54  -4.13c
iter:  32 12:26:44 -7561.580822c -6.25  -4.13c
iter:  33 12:30:18 -7561.580802c -7.19  -4.21c
iter:  34 12:33:53 -7561.580830c -6.57  -4.28c
iter:  35 12:37:28 -7561.580846c -7.47c -4.49c

Converged after 35 iterations.

Dipole moment: (-5.627062, -9.789462, -0.002682) |e|*Ang

Energy contributions relative to reference atoms: (reference = -4422498.971913)

Kinetic:       +733.496097
Potential:     -810.387540
External:        +0.000000
XC:            -7482.835534
Entropy (-ST):   -0.981107
Local:           -1.363315
--------------------------
Free energy:   -7562.071399
Extrapolated:  -7561.580846

Showing only first 2 kpts
 Kpt  Band  Eigenvalues  Occupancy
  0   554     -0.05457    0.65369
  0   555     -0.04177    0.59866
  0   556      0.03913    0.31966
  0   557      0.11597    0.16215

  1   554     -0.30448    1.71056
  1   555     -0.29884    1.69633
  1   556     -0.26564    1.60063
  1   557     -0.23010    1.47494


Fermi level: -0.12682

No gap

Forces in eV/Ang:
  0 Cu    0.15247   -0.47715   -0.53775
  1 Cu   -0.10394    0.05055   -0.01037
  2 Cu   -0.32279    0.37467   -0.54206
  3 Cu    0.01396    0.15697   -0.07602
  4 Cu    0.14825   -0.02998   -0.19527
  5 Cu   -0.07255   -0.01223    0.00582
  6 Cu   -0.07517   -0.01826   -0.11773
  7 Cu   -0.12403   -0.18205   -0.04408
  8 Cu   -0.01211    0.07598   -0.23818
  9 Cu   -0.03035   -0.03902   -0.04071
 10 Cu    0.00730   -0.06283   -0.00030
 11 Cu    0.04365    0.03120   -0.09047
 12 Cu    0.00716   -0.02116   -0.06968
 13 Cu   -0.01465    0.03865    0.11641
 14 Cu   -0.01340    0.02337    0.04734
 15 Cu    0.02080   -0.00602   -0.13581
 16 Cu    0.03355   -0.02071    0.06323
 17 Cu   -0.00635   -0.00120    0.02711
 18 Cu   -0.02134   -0.00573   -0.01915
 19 Cu    0.03944   -0.02741    0.01468
 20 Cu    0.02315    0.03255   -0.06860
 21 Cu    0.00171   -0.01522    0.03478
 22 Cu   -0.00594   -0.00909    0.03399
 23 Cu    0.01978    0.01814   -0.04084
 24 Cu    0.01540   -0.00500   -0.03920
 25 Cu   -0.03333    0.02032    0.03244
 26 Cu   -0.01095    0.03343    0.07214
 27 Cu   -0.00819   -0.02341   -0.02610
 28 Cu    0.00835   -0.00762    0.00851
 29 Cu   -0.03954   -0.03555   -0.06224
 30 Cu   -0.03218   -0.00824   -0.01965
 31 Cu    0.01740   -0.00339   -0.01692
 32 Cu    0.01617    0.02202   -0.03171
 33 Cu   -0.00983   -0.02027    0.07709
 34 Cu   -0.03051   -0.00301    0.12392
 35 Cu    0.01385    0.03543   -0.12908
 36 Cu   -0.00831   -0.07130   -0.01137
 37 Cu    0.01510    0.08565    0.24012
 38 Cu   -0.04855    0.03761    0.08847
 39 Cu    0.03540   -0.04016    0.05760
 40 Cu    0.08400   -0.02386    0.10406
 41 Cu   -0.15220   -0.02467    0.19281
 42 Cu    0.12974   -0.19150    0.05888
 43 Cu    0.07689   -0.01384    0.00196
 44 Cu    0.31445    0.37083    0.55296
 45 Cu   -0.16565   -0.46928    0.53297
 46 Cu    0.00107    0.15849    0.07329
 47 Cu    0.11663    0.06225    0.00573
 48 Cu    0.01396    0.15697   -0.07602
 49 Cu   -0.32279    0.37467   -0.54206
 50 Cu   -0.10394    0.05055   -0.01037
 51 Cu    0.15247   -0.47715   -0.53775
 52 Cu   -0.12403   -0.18205   -0.04408
 53 Cu   -0.07517   -0.01826   -0.11773
 54 Cu   -0.07254   -0.01223    0.00582
 55 Cu    0.14825   -0.02998   -0.19527
 56 Cu    0.04365    0.03120   -0.09047
 57 Cu    0.00731   -0.06283   -0.00030
 58 Cu   -0.03035   -0.03902   -0.04071
 59 Cu   -0.01211    0.07598   -0.23818
 60 Cu    0.02080   -0.00602   -0.13581
 61 Cu   -0.01340    0.02337    0.04734
 62 Cu   -0.01465    0.03865    0.11641
 63 Cu    0.00715   -0.02116   -0.06968
 64 Cu    0.03944   -0.02742    0.01468
 65 Cu   -0.02134   -0.00573   -0.01915
 66 Cu   -0.00636   -0.00120    0.02711
 67 Cu    0.03355   -0.02071    0.06323
 68 Cu    0.01978    0.01814   -0.04084
 69 Cu   -0.00594   -0.00909    0.03399
 70 Cu    0.00172   -0.01522    0.03479
 71 Cu    0.02315    0.03255   -0.06860
 72 Cu   -0.00819   -0.02341   -0.02610
 73 Cu   -0.01095    0.03343    0.07213
 74 Cu   -0.03333    0.02032    0.03244
 75 Cu    0.01540   -0.00500   -0.03919
 76 Cu    0.01740   -0.00339   -0.01692
 77 Cu   -0.03218   -0.00824   -0.01965
 78 Cu   -0.03953   -0.03554   -0.06224
 79 Cu    0.00835   -0.00762    0.00851
 80 Cu    0.01385    0.03543   -0.12908
 81 Cu   -0.03051   -0.00301    0.12392
 82 Cu   -0.00983   -0.02027    0.07709
 83 Cu    0.01616    0.02202   -0.03170
 84 Cu    0.03540   -0.04016    0.05760
 85 Cu   -0.04856    0.03761    0.08847
 86 Cu    0.01510    0.08565    0.24012
 87 Cu   -0.00831   -0.07130   -0.01137
 88 Cu    0.07689   -0.01385    0.00195
 89 Cu    0.12974   -0.19150    0.05888
 90 Cu   -0.15220   -0.02467    0.19281
 91 Cu    0.08400   -0.02386    0.10407
 92 Cu    0.11663    0.06225    0.00573
 93 Cu    0.00107    0.15849    0.07329
 94 Cu   -0.16565   -0.46928    0.53297
 95 Cu    0.31445    0.37083    0.55296
 96 Cl   -0.68157   -0.53303   -1.17476
 97 Cl    0.47259    0.64456   -0.69852
 98 Cl    0.47259    0.64456   -0.69852
 99 Cl   -0.68157   -0.53303   -1.17476
100 Cl    0.68491   -0.53295    1.16735
101 Cl   -0.48460    0.64756    0.70150
102 Cl    0.68491   -0.53295    1.16735
103 Cl   -0.48460    0.64756    0.70150

System changes: positions 

Initializing position-dependent things.

Density initialized from wave functions
      .----------------------------.  
     /|                            |  
    / |                            |  
   /  |                            |  
  /   |                            |  
 *    |                            |  
 |    |                            |  
 |    |                            |  
 |    |                            |  
 |    |                            |  
 |    |                            |  
 |    |                            |  
 |    |             Cl             |  
 |    |  Cl   Cu                  Cu  
 |    |                     Cu     |  
 | Cl | Cu             Cu       Cu |  
 |    |    Cu    Cu  Cl   Cu   Cu  |  
 |    Cu   Cu       Cu    Cu       |  
 |    Cu   Cu  Cu   Cu    Cu       |  
 |   Cu  Cu   Cu    Cu Cu    Cu    |  
 |    |  Cu   Cu       Cu    Cu    |  
 | Cu | Cu    Cu  Cu   Cu    Cu    |  
 | Cu | Cu  Cu   Cu    Cu Cu       |  
 |    |     Cu   Cu       Cu    Cu |  
 |    Cu   Cu    Cu Cu    Cu    Cu |  
 |    Cu   Cu  Cu   Cu    Cu Cu    |  
 |   CCu       Cu   Cu    Cu Cu    |  
 |    |  Cu   Cu       Cu    Cu   Cu  
 | Cu |  Cu   Cu  Cu   Cu    Cu    |  
 | Cu | Cu  Cu   Cu    Cu Cu Cu    |  
 |    |     Cu   Cu       Cu    Cu |  
 |    CuCl  Cu   Cl       Cu       |  
 |    Cu       Cu   Cu             |  
 |    |             Cl             |  
 |    |  Cu                  Cl    |  
 |    |                            |  
 |    |                            |  
 |    |                            |  
 |    |                            |  
 |    |                            |  
 |    |                            |  
 |    .----------------------------.  
 |   /                            /   
 |  /                            /    
 | /                            /     
 |/                            /      
 *----------------------------*       

Positions:
   0 Cu     3.116748    0.088497   10.007027    ( 0.0000,  0.0000,  0.0000)
   1 Cu     1.393402    1.923356   10.546502    ( 0.0000,  0.0000,  0.0000)
   2 Cu     7.356021    1.802118   10.590504    ( 0.0000,  0.0000,  0.0000)
   3 Cu     9.122698   -0.047406   10.034408    ( 0.0000,  0.0000,  0.0000)
   4 Cu    11.446253   -0.051273   11.124848    ( 0.0000,  0.0000,  0.0000)
   5 Cu     9.695897    1.856089   11.730696    ( 0.0000,  0.0000,  0.0000)
   6 Cu     3.781300    1.862324   11.761902    ( 0.0000,  0.0000,  0.0000)
   7 Cu     5.526050    0.062044   11.135344    ( 0.0000,  0.0000,  0.0000)
   8 Cu     7.893438   -0.009084   12.325069    ( 0.0000,  0.0000,  0.0000)
   9 Cu     6.132211    1.852558   12.926589    ( 0.0000,  0.0000,  0.0000)
  10 Cu     0.275851    1.861683   12.911826    ( 0.0000,  0.0000,  0.0000)
  11 Cu     2.033601    0.018672   12.345625    ( 0.0000,  0.0000,  0.0000)
  12 Cu     4.374567    0.009487   13.504701    ( 0.0000,  0.0000,  0.0000)
  13 Cu     2.613059    1.861284   14.122617    ( 0.0000,  0.0000,  0.0000)
  14 Cu     8.478063    1.853305   14.083546    ( 0.0000,  0.0000,  0.0000)
  15 Cu    10.241511    0.008458   13.500605    ( 0.0000,  0.0000,  0.0000)
  16 Cu     0.863492    0.011596   14.680918    ( 0.0000,  0.0000,  0.0000)
  17 Cu    10.805394    1.859081   15.266141    ( 0.0000,  0.0000,  0.0000)
  18 Cu     4.951911    1.856633   15.269402    ( 0.0000,  0.0000,  0.0000)
  19 Cu     6.717480    0.003710   14.680057    ( 0.0000,  0.0000,  0.0000)
  20 Cu     9.046711    0.008632   15.846670    ( 0.0000,  0.0000,  0.0000)
  21 Cu     7.283422    1.858379   16.427939    ( 0.0000,  0.0000,  0.0000)
  22 Cu     1.431825    1.855336   16.449022    ( 0.0000,  0.0000,  0.0000)
  23 Cu     3.194117    0.003033   15.848018    ( 0.0000,  0.0000,  0.0000)
  24 Cu     5.528197    0.003570   17.014996    ( 0.0000,  0.0000,  0.0000)
  25 Cu     3.765181    1.860536   17.610140    ( 0.0000,  0.0000,  0.0000)
  26 Cu     9.615494    1.852179   17.609559    ( 0.0000,  0.0000,  0.0000)
  27 Cu    11.378484    0.008735   17.022220    ( 0.0000,  0.0000,  0.0000)
  28 Cu     2.007619    0.002252   18.189712    ( 0.0000,  0.0000,  0.0000)
  29 Cu     0.240690    1.858254   18.779867    ( 0.0000,  0.0000,  0.0000)
  30 Cu     6.096380    1.856028   18.772522    ( 0.0000,  0.0000,  0.0000)
  31 Cu     7.856833    0.010571   18.188565    ( 0.0000,  0.0000,  0.0000)
  32 Cu    10.185490    0.003484   19.371851    ( 0.0000,  0.0000,  0.0000)
  33 Cu     8.436467    1.858107   19.954649    ( 0.0000,  0.0000,  0.0000)
  34 Cu     2.566784    1.858260   19.953964    ( 0.0000,  0.0000,  0.0000)
  35 Cu     4.343525    0.007272   19.335886    ( 0.0000,  0.0000,  0.0000)
  36 Cu     6.682148    0.009407   20.542747    ( 0.0000,  0.0000,  0.0000)
  37 Cu     4.915429    1.839466   21.127828    ( 0.0000,  0.0000,  0.0000)
  38 Cu    10.775819    1.867998   21.114018    ( 0.0000,  0.0000,  0.0000)
  39 Cu     0.826039    0.000100   20.531039    ( 0.0000,  0.0000,  0.0000)
  40 Cu     3.175240    0.007800   21.696989    ( 0.0000,  0.0000,  0.0000)
  41 Cu     1.362202    1.799051   22.333130    ( 0.0000,  0.0000,  0.0000)
  42 Cu     7.282495    1.908481   22.320251    ( 0.0000,  0.0000,  0.0000)
  43 Cu     8.966644    0.003404   21.724680    ( 0.0000,  0.0000,  0.0000)
  44 Cu    11.305079   -0.053367   22.864746    ( 0.0000,  0.0000,  0.0000)
  45 Cu     9.694967    1.930742   23.450954    ( 0.0000,  0.0000,  0.0000)
  46 Cu     3.685938    1.803088   23.421026    ( 0.0000,  0.0000,  0.0000)
  47 Cu     5.560665    0.071611   22.910234    ( 0.0000,  0.0000,  0.0000)
  48 Cu     3.270903    3.653594   10.034408    ( 0.0000,  0.0000,  0.0000)
  49 Cu     1.504226    5.503118   10.590504    ( 0.0000,  0.0000,  0.0000)
  50 Cu     7.245197    5.624356   10.546502    ( 0.0000,  0.0000,  0.0000)
  51 Cu     8.968543    3.789497   10.007027    ( 0.0000,  0.0000,  0.0000)
  52 Cu    11.377845    3.763044   11.135344    ( 0.0000,  0.0000,  0.0000)
  53 Cu     9.633095    5.563324   11.761902    ( 0.0000,  0.0000,  0.0000)
  54 Cu     3.844103    5.557089   11.730696    ( 0.0000,  0.0000,  0.0000)
  55 Cu     5.594458    3.649727   11.124848    ( 0.0000,  0.0000,  0.0000)
  56 Cu     7.885396    3.719672   12.345625    ( 0.0000,  0.0000,  0.0000)
  57 Cu     6.127647    5.562683   12.911826    ( 0.0000,  0.0000,  0.0000)
  58 Cu     0.280416    5.553558   12.926589    ( 0.0000,  0.0000,  0.0000)
  59 Cu     2.041643    3.691916   12.325069    ( 0.0000,  0.0000,  0.0000)
  60 Cu     4.389716    3.709458   13.500605    ( 0.0000,  0.0000,  0.0000)
  61 Cu     2.626268    5.554305   14.083546    ( 0.0000,  0.0000,  0.0000)
  62 Cu     8.464854    5.562284   14.122617    ( 0.0000,  0.0000,  0.0000)
  63 Cu    10.226361    3.710487   13.504701    ( 0.0000,  0.0000,  0.0000)
  64 Cu     0.865685    3.704710   14.680057    ( 0.0000,  0.0000,  0.0000)
  65 Cu    10.803706    5.557633   15.269402    ( 0.0000,  0.0000,  0.0000)
  66 Cu     4.953598    5.560081   15.266141    ( 0.0000,  0.0000,  0.0000)
  67 Cu     6.715287    3.712596   14.680918    ( 0.0000,  0.0000,  0.0000)
  68 Cu     9.045912    3.704033   15.848018    ( 0.0000,  0.0000,  0.0000)
  69 Cu     7.283620    5.556336   16.449022    ( 0.0000,  0.0000,  0.0000)
  70 Cu     1.431628    5.559379   16.427940    ( 0.0000,  0.0000,  0.0000)
  71 Cu     3.194916    3.709632   15.846670    ( 0.0000,  0.0000,  0.0000)
  72 Cu     5.526689    3.709735   17.022220    ( 0.0000,  0.0000,  0.0000)
  73 Cu     3.763699    5.553179   17.609559    ( 0.0000,  0.0000,  0.0000)
  74 Cu     9.616976    5.561536   17.610140    ( 0.0000,  0.0000,  0.0000)
  75 Cu    11.379992    3.704570   17.014997    ( 0.0000,  0.0000,  0.0000)
  76 Cu     2.005038    3.711571   18.188565    ( 0.0000,  0.0000,  0.0000)
  77 Cu     0.244585    5.557028   18.772522    ( 0.0000,  0.0000,  0.0000)
  78 Cu     6.092485    5.559254   18.779867    ( 0.0000,  0.0000,  0.0000)
  79 Cu     7.859414    3.703252   18.189712    ( 0.0000,  0.0000,  0.0000)
  80 Cu    10.195320    3.708272   19.335886    ( 0.0000,  0.0000,  0.0000)
  81 Cu     8.418579    5.559260   19.953964    ( 0.0000,  0.0000,  0.0000)
  82 Cu     2.584672    5.559107   19.954649    ( 0.0000,  0.0000,  0.0000)
  83 Cu     4.333694    3.704484   19.371852    ( 0.0000,  0.0000,  0.0000)
  84 Cu     6.677834    3.701100   20.531039    ( 0.0000,  0.0000,  0.0000)
  85 Cu     4.924023    5.568998   21.114018    ( 0.0000,  0.0000,  0.0000)
  86 Cu    10.767224    5.540466   21.127828    ( 0.0000,  0.0000,  0.0000)
  87 Cu     0.830353    3.710407   20.542748    ( 0.0000,  0.0000,  0.0000)
  88 Cu     3.114849    3.704403   21.724680    ( 0.0000,  0.0000,  0.0000)
  89 Cu     1.430700    5.609481   22.320251    ( 0.0000,  0.0000,  0.0000)
  90 Cu     7.213997    5.500051   22.333130    ( 0.0000,  0.0000,  0.0000)
  91 Cu     9.027035    3.708800   21.696989    ( 0.0000,  0.0000,  0.0000)
  92 Cu    11.412460    3.772611   22.910235    ( 0.0000,  0.0000,  0.0000)
  93 Cu     9.537732    5.504088   23.421025    ( 0.0000,  0.0000,  0.0000)
  94 Cu     3.843172    5.631742   23.450954    ( 0.0000,  0.0000,  0.0000)
  95 Cu     5.453284    3.647633   22.864746    ( 0.0000,  0.0000,  0.0000)
  96 Cl     6.135858    5.012541   24.856229    ( 0.0000,  0.0000,  0.0000)
  97 Cl     2.138493    4.041485   24.500374    ( 0.0000,  0.0000,  0.0000)
  98 Cl     7.990288    0.340486   24.500374    ( 0.0000,  0.0000,  0.0000)
  99 Cl    11.987652    1.311541   24.856229    ( 0.0000,  0.0000,  0.0000)
 100 Cl     6.681157    3.181550    8.603472    ( 0.0000,  0.0000,  0.0000)
 101 Cl     4.803034    5.892779    8.951636    ( 0.0000,  0.0000,  0.0000)
 102 Cl     0.829362   -0.519450    8.603472    ( 0.0000,  0.0000,  0.0000)
 103 Cl    -1.048761    2.191779    8.951636    ( 0.0000,  0.0000,  0.0000)

Unit cell:
           periodic     x           y           z      points  spacing
  1. axis:    yes   11.703590    0.000000    0.000000    70     0.1672
  2. axis:    yes    0.000000    7.402000    0.000000    42     0.1762
  3. axis:    no     0.000000    0.000000   33.459128   192     0.1743

  Lengths:  11.703590   7.402000  33.459128
  Angles:   90.000000  90.000000  90.000000

Effective grid spacing dv^(1/3) = 0.1725

     iter     time        total  log10-change:
                         energy  eigst   dens
iter:   1 12:43:14 -7580.194650  -1.62
iter:   2 12:46:48 -7571.836173  -1.46  -1.65
iter:   3 12:50:19 -7563.554424  -2.20  -1.94
iter:   4 12:53:53 -7563.368018  -3.59  -2.49
iter:   5 12:57:25 -7563.699946c -3.38  -2.59
iter:   6 13:00:57 -7563.205382c -3.04  -2.45
iter:   7 13:04:30 -7563.117534  -3.82  -2.77
iter:   8 13:08:02 -7563.107346c -4.21  -3.10
iter:   9 13:11:34 -7563.107006c -4.49  -3.19
iter:  10 13:15:06 -7563.105639c -5.28  -3.39
iter:  11 13:18:41 -7563.107249c -5.30  -3.39
iter:  12 13:22:17 -7563.104685c -4.75  -3.36
iter:  13 13:25:51 -7563.101344c -5.20  -3.57
iter:  14 13:29:26 -7563.101088c -5.41  -3.65
iter:  15 13:33:01 -7563.101198c -5.73  -3.87
iter:  16 13:36:34 -7563.100809c -5.72  -4.04c
iter:  17 13:40:09 -7563.100881c -6.57  -4.24c
iter:  18 13:43:43 -7563.100915c -6.90  -4.27c
iter:  19 13:47:15 -7563.100778c -6.54  -4.28c
iter:  20 13:50:47 -7563.100774c -7.45c -4.52c

Converged after 20 iterations.

Dipole moment: (-5.663507, -10.403449, -0.000336) |e|*Ang

Energy contributions relative to reference atoms: (reference = -4422498.971913)

Kinetic:       +736.141898
Potential:     -812.421011
External:        +0.000000
XC:            -7484.877451
Entropy (-ST):   -0.973026
Local:           -1.457696
--------------------------
Free energy:   -7563.587287
Extrapolated:  -7563.100774

Showing only first 2 kpts
 Kpt  Band  Eigenvalues  Occupancy
  0   554      0.16685    0.64491
  0   555      0.18395    0.57257
  0   556      0.25839    0.32009
  0   557      0.32457    0.17902

  1   554     -0.08816    1.71815
  1   555     -0.08786    1.71742
  1   556     -0.04554    1.59844
  1   557     -0.00812    1.46493


Fermi level: 0.09260

No gap

Forces in eV/Ang:
  0 Cu    0.09276   -0.18595   -0.24913
  1 Cu    0.12029   -0.00529    0.05124
  2 Cu   -0.23622    0.07360   -0.28874
  3 Cu   -0.07537    0.09078    0.02806
  4 Cu    0.00131    0.00689   -0.01529
  5 Cu   -0.13643   -0.06131    0.06173
  6 Cu   -0.07315   -0.05720   -0.17469
  7 Cu   -0.05579   -0.06021    0.02503
  8 Cu   -0.05991    0.14401   -0.20673
  9 Cu    0.00835   -0.03675   -0.08683
 10 Cu    0.02147   -0.04866   -0.00318
 11 Cu    0.05858    0.02025   -0.09471
 12 Cu   -0.00093   -0.00585   -0.04343
 13 Cu   -0.00499    0.03736    0.00423
 14 Cu   -0.01572    0.00575   -0.00523
 15 Cu    0.01235   -0.01501   -0.11304
 16 Cu    0.00603   -0.02069    0.01591
 17 Cu    0.00071   -0.00739    0.00184
 18 Cu    0.00012   -0.00460   -0.02555
 19 Cu    0.01829   -0.01348   -0.02346
 20 Cu    0.02605    0.03198   -0.02954
 21 Cu    0.00813   -0.01071    0.02247
 22 Cu    0.00225   -0.00844    0.02655
 23 Cu    0.02050    0.00694   -0.00412
 24 Cu    0.00692    0.00367   -0.03496
 25 Cu   -0.02963    0.02410    0.00592
 26 Cu   -0.01688    0.01318    0.02321
 27 Cu   -0.01621   -0.02165   -0.01660
 28 Cu   -0.00947   -0.00476    0.01746
 29 Cu   -0.00847   -0.03049   -0.01417
 30 Cu   -0.01749   -0.00583    0.01920
 31 Cu    0.00871   -0.00650    0.00358
 32 Cu    0.01627   -0.00054    0.01404
 33 Cu   -0.00507   -0.00443    0.04924
 34 Cu   -0.01338   -0.01873    0.10320
 35 Cu    0.00487    0.04779   -0.01343
 36 Cu   -0.02358   -0.04928   -0.00619
 37 Cu    0.06259    0.14599    0.20522
 38 Cu   -0.06115    0.02368    0.09649
 39 Cu   -0.00403   -0.03814    0.09970
 40 Cu    0.08027   -0.05290    0.16382
 41 Cu   -0.00161    0.00946    0.01397
 42 Cu    0.06014   -0.06435   -0.01598
 43 Cu    0.13805   -0.06399   -0.05718
 44 Cu    0.23148    0.07410    0.29856
 45 Cu   -0.09903   -0.17735    0.24702
 46 Cu    0.08479    0.08821   -0.03246
 47 Cu   -0.11453   -0.00237   -0.05338
 48 Cu   -0.07537    0.09078    0.02806
 49 Cu   -0.23622    0.07360   -0.28874
 50 Cu    0.12029   -0.00529    0.05124
 51 Cu    0.09276   -0.18595   -0.24913
 52 Cu   -0.05579   -0.06021    0.02503
 53 Cu   -0.07315   -0.05720   -0.17469
 54 Cu   -0.13643   -0.06131    0.06173
 55 Cu    0.00131    0.00689   -0.01529
 56 Cu    0.05858    0.02025   -0.09471
 57 Cu    0.02147   -0.04866   -0.00318
 58 Cu    0.00835   -0.03675   -0.08683
 59 Cu   -0.05991    0.14401   -0.20673
 60 Cu    0.01235   -0.01501   -0.11304
 61 Cu   -0.01572    0.00575   -0.00523
 62 Cu   -0.00499    0.03736    0.00423
 63 Cu   -0.00092   -0.00585   -0.04343
 64 Cu    0.01829   -0.01348   -0.02346
 65 Cu    0.00013   -0.00460   -0.02555
 66 Cu    0.00071   -0.00739    0.00184
 67 Cu    0.00603   -0.02069    0.01591
 68 Cu    0.02050    0.00694   -0.00412
 69 Cu    0.00225   -0.00844    0.02655
 70 Cu    0.00813   -0.01071    0.02247
 71 Cu    0.02604    0.03198   -0.02954
 72 Cu   -0.01622   -0.02165   -0.01660
 73 Cu   -0.01688    0.01318    0.02321
 74 Cu   -0.02963    0.02410    0.00592
 75 Cu    0.00692    0.00367   -0.03496
 76 Cu    0.00871   -0.00650    0.00358
 77 Cu   -0.01749   -0.00583    0.01920
 78 Cu   -0.00847   -0.03049   -0.01417
 79 Cu   -0.00947   -0.00476    0.01746
 80 Cu    0.00487    0.04779   -0.01343
 81 Cu   -0.01338   -0.01873    0.10320
 82 Cu   -0.00507   -0.00443    0.04924
 83 Cu    0.01627   -0.00054    0.01404
 84 Cu   -0.00403   -0.03814    0.09970
 85 Cu   -0.06115    0.02368    0.09649
 86 Cu    0.06259    0.14599    0.20521
 87 Cu   -0.02358   -0.04928   -0.00619
 88 Cu    0.13805   -0.06399   -0.05718
 89 Cu    0.06014   -0.06435   -0.01598
 90 Cu   -0.00161    0.00946    0.01397
 91 Cu    0.08027   -0.05290    0.16382
 92 Cu   -0.11453   -0.00237   -0.05338
 93 Cu    0.08479    0.08821   -0.03246
 94 Cu   -0.09903   -0.17735    0.24702
 95 Cu    0.23148    0.07410    0.29856
 96 Cl   -0.48381   -0.33991   -0.79786
 97 Cl    0.30067    0.44602   -0.29698
 98 Cl    0.30067    0.44602   -0.29698
 99 Cl   -0.48381   -0.33991   -0.79785
100 Cl    0.48298   -0.33850    0.79049
101 Cl   -0.30663    0.44612    0.30406
102 Cl    0.48298   -0.33850    0.79049
103 Cl   -0.30664    0.44612    0.30406

System changes: positions 

Initializing position-dependent things.

Density initialized from wave functions
      .----------------------------.  
     /|                            |  
    / |                            |  
   /  |                            |  
  /   |                            |  
 *    |                            |  
 |    |                            |  
 |    |                            |  
 |    |                            |  
 |    |                            |  
 |    |                            |  
 |    |                            |  
 |    |            Cl              |  
 |    |  Cl   Cu                  Cu  
 |    |                     Cu     |  
 |Cl  | Cu       Cu    Cu       Cu |  
 |    | Cu Cu    Cu  ClCu Cu   Cu  |  
 |    Cu   Cu       Cu    Cu       |  
 |    Cu   Cu  Cu   Cu    Cu       |  
 |   Cu  Cu   Cu    Cu Cu    Cu    |  
 |    |  Cu   Cu       Cu    Cu    |  
 |    | Cu    Cu       Cu    Cu    |  
 | Cu | Cu  Cu   Cu    Cu Cu       |  
 |    |     Cu   Cu    Cu Cu    Cu |  
 |    Cu   Cu    Cu Cu    Cu    Cu |  
 |    Cu   Cu  Cu   Cu    Cu Cu    |  
 |   CCu       Cu   Cu       Cu    |  
 |    |  Cu   Cu       Cu    Cu   Cu  
 | Cu |  Cu   Cu       Cu    Cu    |  
 | Cu | Cu  Cu   Cu    Cu Cu Cu    |  
 |    |     Cu   Cu       Cu    Cu |  
 |    CuCl  Cu   Cl  Cu   Cu       |  
 |    Cu       Cu   Cu             |  
 |    |             Cl       Cl    |  
 |    |  Cu                        |  
 |    |                            |  
 |    |                            |  
 |    |                            |  
 |    |                            |  
 |    |                            |  
 |    |                            |  
 |    .----------------------------.  
 |   /                            /   
 |  /                            /    
 | /                            /     
 |/                            /      
 *----------------------------*       

Positions:
   0 Cu     3.137649    0.023091    9.933314    ( 0.0000,  0.0000,  0.0000)
   1 Cu     1.379154    1.930285   10.545081    ( 0.0000,  0.0000,  0.0000)
   2 Cu     7.311774    1.853476   10.516199    ( 0.0000,  0.0000,  0.0000)
   3 Cu     9.124612   -0.025889   10.023988    ( 0.0000,  0.0000,  0.0000)
   4 Cu    11.466576   -0.055382   11.098080    ( 0.0000,  0.0000,  0.0000)
   5 Cu     9.685953    1.854413   11.731495    ( 0.0000,  0.0000,  0.0000)
   6 Cu     3.770995    1.859822   11.745764    ( 0.0000,  0.0000,  0.0000)
   7 Cu     5.509049    0.037088   11.129302    ( 0.0000,  0.0000,  0.0000)
   8 Cu     7.891779    0.001332   12.292419    ( 0.0000,  0.0000,  0.0000)
   9 Cu     6.128050    1.847210   12.921010    ( 0.0000,  0.0000,  0.0000)
  10 Cu     0.276853    1.853071   12.911784    ( 0.0000,  0.0000,  0.0000)
  11 Cu     2.039585    0.022950   12.333224    ( 0.0000,  0.0000,  0.0000)
  12 Cu     4.375547    0.006586   13.495149    ( 0.0000,  0.0000,  0.0000)
  13 Cu     2.611050    1.866581   14.138575    ( 0.0000,  0.0000,  0.0000)
  14 Cu     8.476226    1.856509   14.090034    ( 0.0000,  0.0000,  0.0000)
  15 Cu    10.244362    0.007633   13.481988    ( 0.0000,  0.0000,  0.0000)
  16 Cu     0.868090    0.008758   14.689584    ( 0.0000,  0.0000,  0.0000)
  17 Cu    10.804522    1.858917   15.269856    ( 0.0000,  0.0000,  0.0000)
  18 Cu     4.948986    1.855849   15.266777    ( 0.0000,  0.0000,  0.0000)
  19 Cu     6.722886   -0.000047   14.682068    ( 0.0000,  0.0000,  0.0000)
  20 Cu     9.049883    0.013094   15.837266    ( 0.0000,  0.0000,  0.0000)
  21 Cu     7.283657    1.856292   16.432708    ( 0.0000,  0.0000,  0.0000)
  22 Cu     1.431011    1.854091   16.453682    ( 0.0000,  0.0000,  0.0000)
  23 Cu     3.196829    0.005519   15.842419    ( 0.0000,  0.0000,  0.0000)
  24 Cu     5.530308    0.002884   17.009623    ( 0.0000,  0.0000,  0.0000)
  25 Cu     3.760612    1.863321   17.614587    ( 0.0000,  0.0000,  0.0000)
  26 Cu     9.613992    1.856762   17.619448    ( 0.0000,  0.0000,  0.0000)
  27 Cu    11.377361    0.005525   17.018643    ( 0.0000,  0.0000,  0.0000)
  28 Cu     2.008764    0.001209   18.190879    ( 0.0000,  0.0000,  0.0000)
  29 Cu     0.235270    1.853382   18.771335    ( 0.0000,  0.0000,  0.0000)
  30 Cu     6.091969    1.854899   18.769829    ( 0.0000,  0.0000,  0.0000)
  31 Cu     7.859218    0.010105   18.186246    ( 0.0000,  0.0000,  0.0000)
  32 Cu    10.187706    0.006502   19.367505    ( 0.0000,  0.0000,  0.0000)
  33 Cu     8.435121    1.855328   19.965216    ( 0.0000,  0.0000,  0.0000)
  34 Cu     2.562602    1.857846   19.970951    ( 0.0000,  0.0000,  0.0000)
  35 Cu     4.345423    0.012129   19.318192    ( 0.0000,  0.0000,  0.0000)
  36 Cu     6.681008   -0.000367   20.541189    ( 0.0000,  0.0000,  0.0000)
  37 Cu     4.917499    1.851206   21.160742    ( 0.0000,  0.0000,  0.0000)
  38 Cu    10.769163    1.873155   21.126144    ( 0.0000,  0.0000,  0.0000)
  39 Cu     0.830891   -0.005405   20.538934    ( 0.0000,  0.0000,  0.0000)
  40 Cu     3.186754    0.004530   21.711254    ( 0.0000,  0.0000,  0.0000)
  41 Cu     1.341340    1.795669   22.359560    ( 0.0000,  0.0000,  0.0000)
  42 Cu     7.300280    1.882230   22.328322    ( 0.0000,  0.0000,  0.0000)
  43 Cu     8.977184    0.001506   21.724948    ( 0.0000,  0.0000,  0.0000)
  44 Cu    11.348183   -0.002535   22.940545    ( 0.0000,  0.0000,  0.0000)
  45 Cu     9.672261    1.866413   23.524012    ( 0.0000,  0.0000,  0.0000)
  46 Cu     3.686084    1.824813   23.431072    ( 0.0000,  0.0000,  0.0000)
  47 Cu     5.576652    0.080144   22.911019    ( 0.0000,  0.0000,  0.0000)
  48 Cu     3.272817    3.675111   10.023988    ( 0.0000,  0.0000,  0.0000)
  49 Cu     1.459979    5.554476   10.516199    ( 0.0000,  0.0000,  0.0000)
  50 Cu     7.230949    5.631285   10.545081    ( 0.0000,  0.0000,  0.0000)
  51 Cu     8.989445    3.724091    9.933314    ( 0.0000,  0.0000,  0.0000)
  52 Cu    11.360844    3.738088   11.129302    ( 0.0000,  0.0000,  0.0000)
  53 Cu     9.622790    5.560822   11.745764    ( 0.0000,  0.0000,  0.0000)
  54 Cu     3.834158    5.555413   11.731495    ( 0.0000,  0.0000,  0.0000)
  55 Cu     5.614781    3.645618   11.098080    ( 0.0000,  0.0000,  0.0000)
  56 Cu     7.891380    3.723950   12.333224    ( 0.0000,  0.0000,  0.0000)
  57 Cu     6.128648    5.554071   12.911784    ( 0.0000,  0.0000,  0.0000)
  58 Cu     0.276255    5.548210   12.921009    ( 0.0000,  0.0000,  0.0000)
  59 Cu     2.039984    3.702332   12.292419    ( 0.0000,  0.0000,  0.0000)
  60 Cu     4.392567    3.708633   13.481988    ( 0.0000,  0.0000,  0.0000)
  61 Cu     2.624431    5.557509   14.090034    ( 0.0000,  0.0000,  0.0000)
  62 Cu     8.462846    5.567581   14.138575    ( 0.0000,  0.0000,  0.0000)
  63 Cu    10.227342    3.707586   13.495149    ( 0.0000,  0.0000,  0.0000)
  64 Cu     0.871091    3.700952   14.682069    ( 0.0000,  0.0000,  0.0000)
  65 Cu    10.800780    5.556849   15.266777    ( 0.0000,  0.0000,  0.0000)
  66 Cu     4.952727    5.559917   15.269856    ( 0.0000,  0.0000,  0.0000)
  67 Cu     6.719885    3.709758   14.689584    ( 0.0000,  0.0000,  0.0000)
  68 Cu     9.048624    3.706520   15.842419    ( 0.0000,  0.0000,  0.0000)
  69 Cu     7.282806    5.555090   16.453682    ( 0.0000,  0.0000,  0.0000)
  70 Cu     1.431863    5.557292   16.432708    ( 0.0000,  0.0000,  0.0000)
  71 Cu     3.198089    3.714095   15.837266    ( 0.0000,  0.0000,  0.0000)
  72 Cu     5.525566    3.706525   17.018642    ( 0.0000,  0.0000,  0.0000)
  73 Cu     3.762197    5.557763   17.619447    ( 0.0000,  0.0000,  0.0000)
  74 Cu     9.612407    5.564321   17.614587    ( 0.0000,  0.0000,  0.0000)
  75 Cu    11.382102    3.703884   17.009624    ( 0.0000,  0.0000,  0.0000)
  76 Cu     2.007423    3.711106   18.186246    ( 0.0000,  0.0000,  0.0000)
  77 Cu     0.240174    5.555899   18.769829    ( 0.0000,  0.0000,  0.0000)
  78 Cu     6.087066    5.554382   18.771335    ( 0.0000,  0.0000,  0.0000)
  79 Cu     7.860559    3.702208   18.190879    ( 0.0000,  0.0000,  0.0000)
  80 Cu    10.197219    3.713129   19.318192    ( 0.0000,  0.0000,  0.0000)
  81 Cu     8.414397    5.558846   19.970951    ( 0.0000,  0.0000,  0.0000)
  82 Cu     2.583326    5.556328   19.965217    ( 0.0000,  0.0000,  0.0000)
  83 Cu     4.335910    3.707501   19.367505    ( 0.0000,  0.0000,  0.0000)
  84 Cu     6.682686    3.695595   20.538934    ( 0.0000,  0.0000,  0.0000)
  85 Cu     4.917368    5.574154   21.126144    ( 0.0000,  0.0000,  0.0000)
  86 Cu    10.769294    5.552206   21.160742    ( 0.0000,  0.0000,  0.0000)
  87 Cu     0.829213    3.700634   20.541190    ( 0.0000,  0.0000,  0.0000)
  88 Cu     3.125389    3.702506   21.724948    ( 0.0000,  0.0000,  0.0000)
  89 Cu     1.448485    5.583230   22.328322    ( 0.0000,  0.0000,  0.0000)
  90 Cu     7.193134    5.496669   22.359560    ( 0.0000,  0.0000,  0.0000)
  91 Cu     9.038549    3.705530   21.711254    ( 0.0000,  0.0000,  0.0000)
  92 Cu    11.428447    3.781144   22.911020    ( 0.0000,  0.0000,  0.0000)
  93 Cu     9.537879    5.525813   23.431072    ( 0.0000,  0.0000,  0.0000)
  94 Cu     3.820466    5.567413   23.524012    ( 0.0000,  0.0000,  0.0000)
  95 Cu     5.496388    3.698465   22.940545    ( 0.0000,  0.0000,  0.0000)
  96 Cl     6.042429    4.939474   24.695194    ( 0.0000,  0.0000,  0.0000)
  97 Cl     2.203275    4.129841   24.404621    ( 0.0000,  0.0000,  0.0000)
  98 Cl     8.055070    0.428842   24.404621    ( 0.0000,  0.0000,  0.0000)
  99 Cl    11.894223    1.238474   24.695194    ( 0.0000,  0.0000,  0.0000)
 100 Cl     6.775044    3.108494    8.763491    ( 0.0000,  0.0000,  0.0000)
 101 Cl     4.736606    5.981545    9.047798    ( 0.0000,  0.0000,  0.0000)
 102 Cl     0.923249   -0.592506    8.763491    ( 0.0000,  0.0000,  0.0000)
 103 Cl    -1.115189    2.280545    9.047798    ( 0.0000,  0.0000,  0.0000)

Unit cell:
           periodic     x           y           z      points  spacing
  1. axis:    yes   11.703590    0.000000    0.000000    70     0.1672
  2. axis:    yes    0.000000    7.402000    0.000000    42     0.1762
  3. axis:    no     0.000000    0.000000   33.459128   192     0.1743

  Lengths:  11.703590   7.402000  33.459128
  Angles:   90.000000  90.000000  90.000000

Effective grid spacing dv^(1/3) = 0.1725

     iter     time        total  log10-change:
                         energy  eigst   dens
iter:   1 13:56:31 -7598.032654  -1.32
iter:   2 14:00:04 -7586.286128  -1.07  -1.51
iter:   3 14:03:39 -7565.937500  -1.73  -1.74
iter:   4 14:07:12 -7566.363058  -2.69  -2.23
iter:   5 14:10:47 -7564.415045  -3.18  -2.17
iter:   6 14:14:22 -7563.834459  -2.27  -2.44
iter:   7 14:17:56 -7563.669298  -3.58  -2.64
iter:   8 14:21:29 -7563.594282c -2.93  -2.72
iter:   9 14:25:02 -7563.540580c -4.08  -3.03
iter:  10 14:28:35 -7563.515745c -4.17  -3.21
iter:  11 14:32:09 -7563.517421c -4.24  -3.30
iter:  12 14:35:44 -7563.512626c -4.99  -3.42
iter:  13 14:39:19 -7563.510670c -5.13  -3.61
iter:  14 14:42:54 -7563.511549c -5.14  -3.70
iter:  15 14:46:28 -7563.509686c -5.60  -3.71
iter:  16 14:50:02 -7563.509453c -5.89  -3.91
iter:  17 14:53:37 -7563.509626c -6.01  -4.05c
iter:  18 14:57:12 -7563.509545c -5.92  -4.15c
iter:  19 15:00:46 -7563.509458c -7.22  -4.37c
iter:  20 15:04:18 -7563.509377c -6.29  -4.41c
iter:  21 15:07:52 -7563.509438c -6.69  -4.49c
iter:  22 15:11:28 -7563.509404c -7.06  -4.38c
iter:  23 15:15:01 -7563.509352c -6.90  -4.51c
iter:  24 15:18:38 -7563.509352c -7.61c -4.90c

Converged after 24 iterations.

Dipole moment: (-2.810059, -9.840283, 0.000395) |e|*Ang

Energy contributions relative to reference atoms: (reference = -4422498.971913)

Kinetic:       +758.352154
Potential:     -829.985154
External:        +0.000000
XC:            -7489.909920
Entropy (-ST):   -0.966901
Local:           -1.482981
--------------------------
Free energy:   -7563.992803
Extrapolated:  -7563.509352

Showing only first 2 kpts
 Kpt  Band  Eigenvalues  Occupancy
  0   554      0.46444    0.65548
  0   555      0.49379    0.53321
  0   556      0.55321    0.33427
  0   557      0.60447    0.21459

  1   554      0.19982    1.74602
  1   555      0.21169    1.71851
  1   556      0.25012    1.61219
  1   557      0.29375    1.45760


Fermi level: 0.39260

No gap

Forces in eV/Ang:
  0 Cu   -0.07732    0.38854    0.23939
  1 Cu    0.38852   -0.03469    0.13794
  2 Cu    0.06674   -0.80915    0.64997
  3 Cu   -0.18084   -0.02148    0.15804
  4 Cu   -0.25735    0.10118    0.28454
  5 Cu   -0.19550   -0.13335    0.16366
  6 Cu   -0.05602   -0.07068   -0.21819
  7 Cu    0.04576    0.11997    0.14402
  8 Cu   -0.12276    0.20468   -0.13846
  9 Cu    0.05781   -0.03620   -0.13330
 10 Cu    0.04478   -0.02837   -0.01097
 11 Cu    0.06479    0.00348   -0.05527
 12 Cu   -0.01623    0.01692   -0.00922
 13 Cu    0.01029    0.02348   -0.14797
 14 Cu   -0.01770   -0.01492   -0.08548
 15 Cu   -0.00021   -0.02548   -0.07648
 16 Cu   -0.03440   -0.02094   -0.05010
 17 Cu    0.01303   -0.01369   -0.03464
 18 Cu    0.03096   -0.00216   -0.03354
 19 Cu   -0.01575    0.00867   -0.07000
 20 Cu    0.02746    0.02933    0.02725
 21 Cu    0.01714   -0.00417    0.00303
 22 Cu    0.01398   -0.00793    0.01244
 23 Cu    0.02029   -0.00793    0.04910
 24 Cu   -0.00560    0.01547   -0.02477
 25 Cu   -0.02138    0.02854   -0.02947
 26 Cu   -0.02452   -0.01637   -0.04700
 27 Cu   -0.02731   -0.01904    0.00262
 28 Cu   -0.03536    0.00045    0.03276
 29 Cu    0.03786   -0.02219    0.05518
 30 Cu    0.00729   -0.00103    0.06870
 31 Cu   -0.00570   -0.00903    0.03444
 32 Cu    0.01470   -0.03004    0.08872
 33 Cu    0.00567    0.01907    0.01465
 34 Cu    0.01151   -0.03786    0.07209
 35 Cu   -0.00869    0.05454    0.14404
 36 Cu   -0.04795   -0.01830    0.00816
 37 Cu    0.12381    0.19570    0.13272
 38 Cu   -0.06286    0.00321    0.06263
 39 Cu   -0.05456   -0.03782    0.14134
 40 Cu    0.06102   -0.05413    0.21170
 41 Cu    0.25878    0.09856   -0.28162
 42 Cu   -0.04356    0.12461   -0.14384
 43 Cu    0.19295   -0.13806   -0.16195
 44 Cu   -0.07929   -0.80872   -0.66153
 45 Cu    0.07305    0.38205   -0.22898
 46 Cu    0.18232   -0.02925   -0.16310
 47 Cu   -0.39036   -0.04268   -0.13586
 48 Cu   -0.18084   -0.02148    0.15805
 49 Cu    0.06674   -0.80915    0.64997
 50 Cu    0.38852   -0.03469    0.13794
 51 Cu   -0.07732    0.38854    0.23939
 52 Cu    0.04576    0.11997    0.14402
 53 Cu   -0.05602   -0.07068   -0.21819
 54 Cu   -0.19550   -0.13335    0.16366
 55 Cu   -0.25735    0.10118    0.28454
 56 Cu    0.06479    0.00348   -0.05527
 57 Cu    0.04478   -0.02836   -0.01097
 58 Cu    0.05781   -0.03620   -0.13330
 59 Cu   -0.12276    0.20468   -0.13846
 60 Cu   -0.00021   -0.02548   -0.07648
 61 Cu   -0.01770   -0.01492   -0.08548
 62 Cu    0.01029    0.02348   -0.14797
 63 Cu   -0.01623    0.01692   -0.00922
 64 Cu   -0.01575    0.00867   -0.07000
 65 Cu    0.03097   -0.00216   -0.03354
 66 Cu    0.01303   -0.01369   -0.03464
 67 Cu   -0.03440   -0.02093   -0.05010
 68 Cu    0.02029   -0.00794    0.04911
 69 Cu    0.01398   -0.00793    0.01243
 70 Cu    0.01713   -0.00417    0.00302
 71 Cu    0.02746    0.02933    0.02725
 72 Cu   -0.02731   -0.01904    0.00262
 73 Cu   -0.02451   -0.01638   -0.04699
 74 Cu   -0.02138    0.02854   -0.02947
 75 Cu   -0.00560    0.01547   -0.02477
 76 Cu   -0.00570   -0.00903    0.03444
 77 Cu    0.00729   -0.00103    0.06870
 78 Cu    0.03786   -0.02219    0.05518
 79 Cu   -0.03536    0.00045    0.03276
 80 Cu   -0.00869    0.05454    0.14405
 81 Cu    0.01151   -0.03786    0.07209
 82 Cu    0.00567    0.01907    0.01465
 83 Cu    0.01471   -0.03003    0.08871
 84 Cu   -0.05456   -0.03782    0.14134
 85 Cu   -0.06287    0.00321    0.06263
 86 Cu    0.12380    0.19570    0.13272
 87 Cu   -0.04795   -0.01830    0.00816
 88 Cu    0.19295   -0.13806   -0.16195
 89 Cu   -0.04355    0.12461   -0.14384
 90 Cu    0.25879    0.09856   -0.28162
 91 Cu    0.06102   -0.05413    0.21170
 92 Cu   -0.39036   -0.04269   -0.13586
 93 Cu    0.18232   -0.02925   -0.16309
 94 Cu    0.07304    0.38205   -0.22898
 95 Cu   -0.07929   -0.80872   -0.66153
 96 Cl    0.02024    0.26345    0.46582
 97 Cl   -0.10039    0.07908    0.34564
 98 Cl   -0.10039    0.07908    0.34565
 99 Cl    0.02024    0.26346    0.46582
100 Cl   -0.02061    0.25628   -0.46335
101 Cl    0.11331    0.06449   -0.34802
102 Cl   -0.02061    0.25628   -0.46335
103 Cl    0.11332    0.06449   -0.34802

System changes: positions 

Initializing position-dependent things.

Density initialized from wave functions
      .----------------------------.  
     /|                            |  
    / |                            |  
   /  |                            |  
  /   |                            |  
 *    |                            |  
 |    |                            |  
 |    |                            |  
 |    |                            |  
 |    |                            |  
 |    |                            |  
 |    |                            |  
 |    |            Cl              |  
 |    |  Cl   Cu                  Cu  
 |    |                     Cu     |  
 |Cl  | Cu             Cu       Cu |  
 |    | Cu Cu    Cu  Cl   Cu   Cu  |  
 |    Cu   Cu       Cu    Cu       |  
 |    Cu   Cu  Cu   Cu    Cu       |  
 |   Cu  Cu   Cu    Cu       Cu    |  
 |    |  Cu   Cu       Cu    Cu    |  
 |    | Cu    Cu  Cu   Cu    Cu    |  
 | Cu | Cu  Cu   Cu    Cu Cu       |  
 |    |     Cu   Cu       Cu    Cu |  
 |    Cu   Cu    Cu Cu    Cu    Cu |  
 |    Cu   Cu  Cu   Cu    Cu Cu    |  
 |   CCu       Cu   Cu       Cu    |  
 |    |  Cu   Cu       Cu    Cu   Cu  
 | Cu |  Cu   Cu  Cu   Cu    Cu    |  
 | Cu | Cu  Cu   Cu    Cu Cu Cu    |  
 |    |     Cu   Cu       Cu    Cu |  
 |    CuCl  Cu   Cl  Cu   Cu       |  
 |    Cu       Cu   Cu             |  
 |    |             Cl       Cl    |  
 |    |  Cu                        |  
 |    |                            |  
 |    |                            |  
 |    |                            |  
 |    |                            |  
 |    |                            |  
 |    |                            |  
 |    .----------------------------.  
 |   /                            /   
 |  /                            /    
 | /                            /     
 |/                            /      
 *----------------------------*       

Positions:
   0 Cu     3.128345    0.062397    9.963815    ( 0.0000,  0.0000,  0.0000)
   1 Cu     1.408837    1.926571   10.554936    ( 0.0000,  0.0000,  0.0000)
   2 Cu     7.324734    1.787578   10.575349    ( 0.0000,  0.0000,  0.0000)
   3 Cu     9.111683   -0.031429   10.036933    ( 0.0000,  0.0000,  0.0000)
   4 Cu    11.444867   -0.047577   11.122891    ( 0.0000,  0.0000,  0.0000)
   5 Cu     9.674235    1.845460   11.742719    ( 0.0000,  0.0000,  0.0000)
   6 Cu     3.769039    1.855380   11.733634    ( 0.0000,  0.0000,  0.0000)
   7 Cu     5.515427    0.050120   11.140449    ( 0.0000,  0.0000,  0.0000)
   8 Cu     7.883559    0.013599   12.288935    ( 0.0000,  0.0000,  0.0000)
   9 Cu     6.132851    1.845699   12.912794    ( 0.0000,  0.0000,  0.0000)
  10 Cu     0.279777    1.852719   12.911030    ( 0.0000,  0.0000,  0.0000)
  11 Cu     2.042963    0.022387   12.331715    ( 0.0000,  0.0000,  0.0000)
  12 Cu     4.374235    0.008308   13.496304    ( 0.0000,  0.0000,  0.0000)
  13 Cu     2.612144    1.867217   14.125290    ( 0.0000,  0.0000,  0.0000)
  14 Cu     8.475341    1.854870   14.082873    ( 0.0000,  0.0000,  0.0000)
  15 Cu    10.243812    0.006017   13.480173    ( 0.0000,  0.0000,  0.0000)
  16 Cu     0.864835    0.007837   14.684472    ( 0.0000,  0.0000,  0.0000)
  17 Cu    10.805592    1.857996   15.266750    ( 0.0000,  0.0000,  0.0000)
  18 Cu     4.951688    1.855846   15.264939    ( 0.0000,  0.0000,  0.0000)
  19 Cu     6.720775    0.001262   14.676825    ( 0.0000,  0.0000,  0.0000)
  20 Cu     9.051195    0.014294   15.840929    ( 0.0000,  0.0000,  0.0000)
  21 Cu     7.284804    1.856394   16.432021    ( 0.0000,  0.0000,  0.0000)
  22 Cu     1.432136    1.853774   16.453670    ( 0.0000,  0.0000,  0.0000)
  23 Cu     3.197729    0.004500   15.846885    ( 0.0000,  0.0000,  0.0000)
  24 Cu     5.529521    0.004088   17.008913    ( 0.0000,  0.0000,  0.0000)
  25 Cu     3.759986    1.864781   17.611702    ( 0.0000,  0.0000,  0.0000)
  26 Cu     9.612571    1.854762   17.614322    ( 0.0000,  0.0000,  0.0000)
  27 Cu    11.375674    0.004805   17.019498    ( 0.0000,  0.0000,  0.0000)
  28 Cu     2.006091    0.001436   18.192936    ( 0.0000,  0.0000,  0.0000)
  29 Cu     0.238921    1.852756   18.776775    ( 0.0000,  0.0000,  0.0000)
  30 Cu     6.093305    1.855040   18.775111    ( 0.0000,  0.0000,  0.0000)
  31 Cu     7.858373    0.009565   18.189075    ( 0.0000,  0.0000,  0.0000)
  32 Cu    10.188311    0.003847   19.374489    ( 0.0000,  0.0000,  0.0000)
  33 Cu     8.435768    1.857176   19.964248    ( 0.0000,  0.0000,  0.0000)
  34 Cu     2.564189    1.855293   19.972767    ( 0.0000,  0.0000,  0.0000)
  35 Cu     4.344462    0.015007   19.331532    ( 0.0000,  0.0000,  0.0000)
  36 Cu     6.677890    0.000199   20.542049    ( 0.0000,  0.0000,  0.0000)
  37 Cu     4.925715    1.862601   21.163777    ( 0.0000,  0.0000,  0.0000)
  38 Cu    10.766045    1.872408   21.128217    ( 0.0000,  0.0000,  0.0000)
  39 Cu     0.826186   -0.006998   20.547273    ( 0.0000,  0.0000,  0.0000)
  40 Cu     3.188830    0.001383   21.723286    ( 0.0000,  0.0000,  0.0000)
  41 Cu     1.363250    1.803156   22.335015    ( 0.0000,  0.0000,  0.0000)
  42 Cu     7.293908    1.895827   22.316806    ( 0.0000,  0.0000,  0.0000)
  43 Cu     8.988613   -0.007733   21.713641    ( 0.0000,  0.0000,  0.0000)
  44 Cu    11.334566   -0.068304   22.880311    ( 0.0000,  0.0000,  0.0000)
  45 Cu     9.681608    1.905065   23.494358    ( 0.0000,  0.0000,  0.0000)
  46 Cu     3.698729    1.818694   23.417847    ( 0.0000,  0.0000,  0.0000)
  47 Cu     5.546514    0.075572   22.901429    ( 0.0000,  0.0000,  0.0000)
  48 Cu     3.259888    3.669571   10.036933    ( 0.0000,  0.0000,  0.0000)
  49 Cu     1.472939    5.488578   10.575349    ( 0.0000,  0.0000,  0.0000)
  50 Cu     7.260632    5.627571   10.554936    ( 0.0000,  0.0000,  0.0000)
  51 Cu     8.980140    3.763397    9.963815    ( 0.0000,  0.0000,  0.0000)
  52 Cu    11.367222    3.751120   11.140449    ( 0.0000,  0.0000,  0.0000)
  53 Cu     9.620834    5.556380   11.733634    ( 0.0000,  0.0000,  0.0000)
  54 Cu     3.822440    5.546460   11.742720    ( 0.0000,  0.0000,  0.0000)
  55 Cu     5.593072    3.653423   11.122891    ( 0.0000,  0.0000,  0.0000)
  56 Cu     7.894758    3.723387   12.331715    ( 0.0000,  0.0000,  0.0000)
  57 Cu     6.131572    5.553719   12.911029    ( 0.0000,  0.0000,  0.0000)
  58 Cu     0.281056    5.546699   12.912794    ( 0.0000,  0.0000,  0.0000)
  59 Cu     2.031764    3.714599   12.288935    ( 0.0000,  0.0000,  0.0000)
  60 Cu     4.392017    3.707017   13.480173    ( 0.0000,  0.0000,  0.0000)
  61 Cu     2.623546    5.555870   14.082873    ( 0.0000,  0.0000,  0.0000)
  62 Cu     8.463939    5.568217   14.125290    ( 0.0000,  0.0000,  0.0000)
  63 Cu    10.226030    3.709308   13.496304    ( 0.0000,  0.0000,  0.0000)
  64 Cu     0.868980    3.702262   14.676825    ( 0.0000,  0.0000,  0.0000)
  65 Cu    10.803483    5.556846   15.264940    ( 0.0000,  0.0000,  0.0000)
  66 Cu     4.953797    5.558996   15.266750    ( 0.0000,  0.0000,  0.0000)
  67 Cu     6.716630    3.708837   14.684472    ( 0.0000,  0.0000,  0.0000)
  68 Cu     9.049524    3.705500   15.846885    ( 0.0000,  0.0000,  0.0000)
  69 Cu     7.283931    5.554774   16.453670    ( 0.0000,  0.0000,  0.0000)
  70 Cu     1.433009    5.557394   16.432021    ( 0.0000,  0.0000,  0.0000)
  71 Cu     3.199400    3.715294   15.840929    ( 0.0000,  0.0000,  0.0000)
  72 Cu     5.523879    3.705805   17.019498    ( 0.0000,  0.0000,  0.0000)
  73 Cu     3.760776    5.555762   17.614322    ( 0.0000,  0.0000,  0.0000)
  74 Cu     9.611780    5.565781   17.611702    ( 0.0000,  0.0000,  0.0000)
  75 Cu    11.381316    3.705088   17.008913    ( 0.0000,  0.0000,  0.0000)
  76 Cu     2.006578    3.710565   18.189076    ( 0.0000,  0.0000,  0.0000)
  77 Cu     0.241510    5.556040   18.775111    ( 0.0000,  0.0000,  0.0000)
  78 Cu     6.090716    5.553756   18.776775    ( 0.0000,  0.0000,  0.0000)
  79 Cu     7.857886    3.702436   18.192936    ( 0.0000,  0.0000,  0.0000)
  80 Cu    10.196258    3.716007   19.331531    ( 0.0000,  0.0000,  0.0000)
  81 Cu     8.415983    5.556293   19.972767    ( 0.0000,  0.0000,  0.0000)
  82 Cu     2.583973    5.558176   19.964248    ( 0.0000,  0.0000,  0.0000)
  83 Cu     4.336516    3.704846   19.374489    ( 0.0000,  0.0000,  0.0000)
  84 Cu     6.677981    3.694002   20.547273    ( 0.0000,  0.0000,  0.0000)
  85 Cu     4.914250    5.573408   21.128217    ( 0.0000,  0.0000,  0.0000)
  86 Cu    10.777510    5.563600   21.163777    ( 0.0000,  0.0000,  0.0000)
  87 Cu     0.826095    3.701199   20.542050    ( 0.0000,  0.0000,  0.0000)
  88 Cu     3.136818    3.693267   21.713642    ( 0.0000,  0.0000,  0.0000)
  89 Cu     1.442113    5.596827   22.316806    ( 0.0000,  0.0000,  0.0000)
  90 Cu     7.215044    5.504156   22.335015    ( 0.0000,  0.0000,  0.0000)
  91 Cu     9.040625    3.702383   21.723285    ( 0.0000,  0.0000,  0.0000)
  92 Cu    11.398309    3.776572   22.901429    ( 0.0000,  0.0000,  0.0000)
  93 Cu     9.550523    5.519694   23.417846    ( 0.0000,  0.0000,  0.0000)
  94 Cu     3.829813    5.606065   23.494358    ( 0.0000,  0.0000,  0.0000)
  95 Cu     5.482771    3.632696   22.880311    ( 0.0000,  0.0000,  0.0000)
  96 Cl     6.061405    4.971526   24.757854    ( 0.0000,  0.0000,  0.0000)
  97 Cl     2.184115    4.118722   24.446652    ( 0.0000,  0.0000,  0.0000)
  98 Cl     8.035910    0.417723   24.446652    ( 0.0000,  0.0000,  0.0000)
  99 Cl    11.913199    1.270527   24.757854    ( 0.0000,  0.0000,  0.0000)
 100 Cl     6.755956    3.140045    8.701194    ( 0.0000,  0.0000,  0.0000)
 101 Cl     4.756974    5.969334    9.005525    ( 0.0000,  0.0000,  0.0000)
 102 Cl     0.904161   -0.560955    8.701194    ( 0.0000,  0.0000,  0.0000)
 103 Cl    -1.094821    2.268335    9.005525    ( 0.0000,  0.0000,  0.0000)

Unit cell:
           periodic     x           y           z      points  spacing
  1. axis:    yes   11.703590    0.000000    0.000000    70     0.1672
  2. axis:    yes    0.000000    7.402000    0.000000    42     0.1762
  3. axis:    no     0.000000    0.000000   33.459128   192     0.1743

  Lengths:  11.703590   7.402000  33.459128
  Angles:   90.000000  90.000000  90.000000

Effective grid spacing dv^(1/3) = 0.1725

     iter     time        total  log10-change:
                         energy  eigst   dens
iter:   1 15:24:22 -7566.703636  -1.69
iter:   2 15:27:54 -7564.980213  -2.78  -2.18
iter:   3 15:31:26 -7564.244921  -2.80  -2.32
iter:   4 15:34:58 -7564.161033  -2.74  -2.56
iter:   5 15:38:31 -7564.266556c -3.50  -2.62
iter:   6 15:42:05 -7563.898769c -3.31  -2.55
iter:   7 15:45:38 -7563.896323c -3.92  -3.02
iter:   8 15:49:13 -7563.864985c -3.85  -3.15
iter:   9 15:52:47 -7563.861336c -4.47  -3.36
iter:  10 15:56:18 -7563.859332c -5.15  -3.47
iter:  11 15:59:50 -7563.862420c -4.77  -3.52
iter:  12 16:03:23 -7563.855985c -5.05  -3.36
iter:  13 16:06:56 -7563.854683c -5.87  -3.65
iter:  14 16:10:30 -7563.853993c -4.80  -3.71
iter:  15 16:14:03 -7563.853533c -6.21  -3.96
iter:  16 16:17:36 -7563.852993c -6.07  -4.08c
iter:  17 16:21:10 -7563.852897c -5.79  -4.18c
iter:  18 16:24:43 -7563.852852c -6.90  -4.26c
iter:  19 16:28:17 -7563.852832c -7.32  -4.35c
iter:  20 16:31:51 -7563.852824c -7.44c -4.51c

Converged after 20 iterations.

Dipole moment: (-3.100663, -8.751655, -0.000410) |e|*Ang

Energy contributions relative to reference atoms: (reference = -4422498.971913)

Kinetic:       +745.411285
Potential:     -819.845790
External:        +0.000000
XC:            -7487.417838
Entropy (-ST):   -0.966984
Local:           -1.516989
--------------------------
Free energy:   -7564.336316
Extrapolated:  -7563.852824

Showing only first 2 kpts
 Kpt  Band  Eigenvalues  Occupancy
  0   554      0.31247    0.65094
  0   555      0.33693    0.54840
  0   556      0.40432    0.32297
  0   557      0.45408    0.20962

  1   554      0.04977    1.73938
  1   555      0.05413    1.72934
  1   556      0.10061    1.60113
  1   557      0.14195    1.45280


Fermi level: 0.23959

No gap

Forces in eV/Ang:
  0 Cu   -0.02395   -0.00495   -0.02953
  1 Cu    0.15533   -0.04259    0.07080
  2 Cu   -0.13436    0.00434   -0.12615
  3 Cu   -0.06040    0.03247    0.02324
  4 Cu   -0.04480    0.02710    0.06645
  5 Cu   -0.07580   -0.01543    0.06746
  6 Cu   -0.01652   -0.02363   -0.09619
  7 Cu   -0.06789   -0.08059    0.03236
  8 Cu   -0.04710    0.01132    0.01788
  9 Cu   -0.01707    0.00823   -0.03044
 10 Cu    0.01781   -0.01027   -0.01014
 11 Cu    0.01634   -0.01333   -0.04646
 12 Cu   -0.01101    0.00845   -0.00864
 13 Cu    0.00778    0.03195   -0.07259
 14 Cu   -0.01549   -0.00119   -0.00999
 15 Cu   -0.01585   -0.04636   -0.04229
 16 Cu   -0.00119   -0.01801   -0.02930
 17 Cu    0.00780   -0.00819   -0.02530
 18 Cu    0.00909    0.00028   -0.03902
 19 Cu    0.00623   -0.00271   -0.04221
 20 Cu    0.00859    0.01016   -0.01701
 21 Cu    0.00504   -0.00371    0.00353
 22 Cu    0.00517   -0.00450   -0.00698
 23 Cu    0.00245    0.00428    0.00216
 24 Cu   -0.00010    0.00539   -0.00002
 25 Cu   -0.01070    0.01093    0.00484
 26 Cu    0.00028    0.00431    0.01035
 27 Cu   -0.01006   -0.01348    0.00396
 28 Cu   -0.01536   -0.00104    0.03657
 29 Cu   -0.00094   -0.01792    0.03371
 30 Cu   -0.00565   -0.00364    0.04014
 31 Cu   -0.00169   -0.00742    0.02822
 32 Cu    0.01497   -0.00678    0.01594
 33 Cu    0.00868    0.01189    0.01236
 34 Cu    0.01629   -0.05005    0.03890
 35 Cu   -0.00717    0.04054    0.06752
 36 Cu   -0.01819   -0.00901    0.00769
 37 Cu    0.05048    0.00798   -0.01940
 38 Cu   -0.01729   -0.01203    0.04767
 39 Cu    0.01864    0.00781    0.03641
 40 Cu    0.01941   -0.01896    0.09221
 41 Cu    0.04695    0.02727   -0.06540
 42 Cu    0.06907   -0.07885   -0.02678
 43 Cu    0.07129   -0.01825   -0.06643
 44 Cu    0.13175    0.01008    0.13375
 45 Cu    0.02451    0.00116    0.02963
 46 Cu    0.06217    0.02518   -0.02519
 47 Cu   -0.15233   -0.04740   -0.06974
 48 Cu   -0.06040    0.03247    0.02324
 49 Cu   -0.13436    0.00434   -0.12615
 50 Cu    0.15533   -0.04259    0.07080
 51 Cu   -0.02395   -0.00495   -0.02953
 52 Cu   -0.06789   -0.08059    0.03236
 53 Cu   -0.01652   -0.02363   -0.09619
 54 Cu   -0.07580   -0.01543    0.06746
 55 Cu   -0.04481    0.02710    0.06645
 56 Cu    0.01634   -0.01333   -0.04646
 57 Cu    0.01781   -0.01027   -0.01014
 58 Cu   -0.01707    0.00823   -0.03044
 59 Cu   -0.04710    0.01132    0.01788
 60 Cu   -0.01585   -0.04636   -0.04229
 61 Cu   -0.01550   -0.00119   -0.00999
 62 Cu    0.00778    0.03195   -0.07259
 63 Cu   -0.01101    0.00845   -0.00864
 64 Cu    0.00623   -0.00271   -0.04221
 65 Cu    0.00909    0.00028   -0.03902
 66 Cu    0.00780   -0.00819   -0.02530
 67 Cu   -0.00119   -0.01801   -0.02930
 68 Cu    0.00245    0.00428    0.00216
 69 Cu    0.00517   -0.00450   -0.00698
 70 Cu    0.00504   -0.00371    0.00353
 71 Cu    0.00859    0.01016   -0.01701
 72 Cu   -0.01006   -0.01348    0.00396
 73 Cu    0.00028    0.00431    0.01035
 74 Cu   -0.01070    0.01093    0.00484
 75 Cu   -0.00010    0.00539   -0.00002
 76 Cu   -0.00170   -0.00742    0.02822
 77 Cu   -0.00565   -0.00364    0.04014
 78 Cu   -0.00094   -0.01792    0.03371
 79 Cu   -0.01536   -0.00104    0.03657
 80 Cu   -0.00717    0.04054    0.06752
 81 Cu    0.01629   -0.05005    0.03890
 82 Cu    0.00868    0.01189    0.01236
 83 Cu    0.01498   -0.00678    0.01594
 84 Cu    0.01864    0.00781    0.03641
 85 Cu   -0.01729   -0.01203    0.04767
 86 Cu    0.05048    0.00798   -0.01940
 87 Cu   -0.01819   -0.00901    0.00769
 88 Cu    0.07129   -0.01825   -0.06643
 89 Cu    0.06907   -0.07885   -0.02678
 90 Cu    0.04695    0.02727   -0.06540
 91 Cu    0.01941   -0.01896    0.09221
 92 Cu   -0.15233   -0.04740   -0.06975
 93 Cu    0.06217    0.02518   -0.02519
 94 Cu    0.02451    0.00116    0.02963
 95 Cu    0.13175    0.01008    0.13375
 96 Cl   -0.26423   -0.11895   -0.40803
 97 Cl    0.09631    0.25086   -0.01367
 98 Cl    0.09631    0.25085   -0.01367
 99 Cl   -0.26423   -0.11895   -0.40803
100 Cl    0.25853   -0.11926    0.39430
101 Cl   -0.09377    0.24398    0.01422
102 Cl    0.25853   -0.11926    0.39430
103 Cl   -0.09377    0.24398    0.01422

System changes: positions 

Initializing position-dependent things.

Density initialized from wave functions
      .----------------------------.  
     /|                            |  
    / |                            |  
   /  |                            |  
  /   |                            |  
 *    |                            |  
 |    |                            |  
 |    |                            |  
 |    |                            |  
 |    |                            |  
 |    |                            |  
 |    |                            |  
 |    |            Cl              |  
 |    |  Cl   Cu                  Cu  
 |    |       Cu            Cu     |  
 |Cl  | Cu             Cu       Cu |  
 |    | Cu Cu    Cu  ClCu Cu   Cu  |  
 |    Cu   Cu       Cu    Cu       |  
 |    Cu   Cu  Cu   Cu    Cu       |  
 |   Cu       Cu    Cu       Cu    |  
 |    |  Cu   Cu       Cu    Cu    |  
 |    | Cu    Cu       Cu    Cu    |  
 | Cu | Cu  Cu   Cu    Cu Cu       |  
 |    |     Cu   Cu       Cu    Cu |  
 |    Cu   Cu    Cu Cu    Cu    Cu |  
 |    Cu   Cu  Cu   Cu    Cu Cu    |  
 |   CCu       Cu   Cu       Cu    |  
 |    |  Cu   Cu       Cu    Cu   Cu  
 | Cu |  Cu   Cu  Cu   Cu    Cu    |  
 | Cu | Cu  Cu   Cu    Cu Cu Cu    |  
 |    |     Cu   Cu       Cu    Cu |  
 |    CuCl  Cu   Cl  Cu   Cu       |  
 |    Cu       Cu   Cu             |  
 |    |             Cl       Cl    |  
 |    |  Cu                        |  
 |    |                            |  
 |    |                            |  
 |    |                            |  
 |    |                            |  
 |    |                            |  
 |    |                            |  
 |    .----------------------------.  
 |   /                            /   
 |  /                            /    
 | /                            /     
 |/                            /      
 *----------------------------*       

Positions:
   0 Cu     3.127069    0.063847    9.957517    ( 0.0000,  0.0000,  0.0000)
   1 Cu     1.431603    1.922898   10.564900    ( 0.0000,  0.0000,  0.0000)
   2 Cu     7.308639    1.771569   10.572793    ( 0.0000,  0.0000,  0.0000)
   3 Cu     9.101417   -0.026106   10.042075    ( 0.0000,  0.0000,  0.0000)
   4 Cu    11.436387   -0.042856   11.133091    ( 0.0000,  0.0000,  0.0000)
   5 Cu     9.660467    1.839941   11.753483    ( 0.0000,  0.0000,  0.0000)
   6 Cu     3.764445    1.850887   11.716529    ( 0.0000,  0.0000,  0.0000)
   7 Cu     5.508438    0.043063   11.146606    ( 0.0000,  0.0000,  0.0000)
   8 Cu     7.875630    0.022159   12.281578    ( 0.0000,  0.0000,  0.0000)
   9 Cu     6.132480    1.844550   12.905411    ( 0.0000,  0.0000,  0.0000)
  10 Cu     0.282781    1.849730   12.909827    ( 0.0000,  0.0000,  0.0000)
  11 Cu     2.047166    0.021972   12.324258    ( 0.0000,  0.0000,  0.0000)
  12 Cu     4.372951    0.009109   13.493884    ( 0.0000,  0.0000,  0.0000)
  13 Cu     2.612822    1.871440   14.117012    ( 0.0000,  0.0000,  0.0000)
  14 Cu     8.473214    1.854797   14.080438    ( 0.0000,  0.0000,  0.0000)
  15 Cu    10.242861    0.001152   13.471534    ( 0.0000,  0.0000,  0.0000)
  16 Cu     0.864391    0.005250   14.681743    ( 0.0000,  0.0000,  0.0000)
  17 Cu    10.806521    1.856862   15.264094    ( 0.0000,  0.0000,  0.0000)
  18 Cu     4.952956    1.855690   15.260203    ( 0.0000,  0.0000,  0.0000)
  19 Cu     6.721640    0.000733   14.671417    ( 0.0000,  0.0000,  0.0000)
  20 Cu     9.053213    0.016692   15.838889    ( 0.0000,  0.0000,  0.0000)
  21 Cu     7.285780    1.855645   16.433116    ( 0.0000,  0.0000,  0.0000)
  22 Cu     1.432875    1.852969   16.454122    ( 0.0000,  0.0000,  0.0000)
  23 Cu     3.198939    0.004999   15.847700    ( 0.0000,  0.0000,  0.0000)
  24 Cu     5.529658    0.004908   17.007388    ( 0.0000,  0.0000,  0.0000)
  25 Cu     3.757761    1.866975   17.611900    ( 0.0000,  0.0000,  0.0000)
  26 Cu     9.611649    1.855323   17.615276    ( 0.0000,  0.0000,  0.0000)
  27 Cu    11.373835    0.002610   17.019390    ( 0.0000,  0.0000,  0.0000)
  28 Cu     2.003892    0.001206   18.197224    ( 0.0000,  0.0000,  0.0000)
  29 Cu     0.239163    1.849841   18.780054    ( 0.0000,  0.0000,  0.0000)
  30 Cu     6.092385    1.854530   18.780202    ( 0.0000,  0.0000,  0.0000)
  31 Cu     7.858409    0.008591   18.192182    ( 0.0000,  0.0000,  0.0000)
  32 Cu    10.190361    0.002818   19.377846    ( 0.0000,  0.0000,  0.0000)
  33 Cu     8.436485    1.858356   19.967298    ( 0.0000,  0.0000,  0.0000)
  34 Cu     2.565316    1.849804   19.980745    ( 0.0000,  0.0000,  0.0000)
  35 Cu     4.343868    0.020824   19.339002    ( 0.0000,  0.0000,  0.0000)
  36 Cu     6.674738   -0.002554   20.542723    ( 0.0000,  0.0000,  0.0000)
  37 Cu     4.934026    1.870802   21.170872    ( 0.0000,  0.0000,  0.0000)
  38 Cu    10.761719    1.872226   21.135955    ( 0.0000,  0.0000,  0.0000)
  39 Cu     0.826890   -0.008254   20.555748    ( 0.0000,  0.0000,  0.0000)
  40 Cu     3.193998   -0.002331   21.739581    ( 0.0000,  0.0000,  0.0000)
  41 Cu     1.371878    1.807920   22.324942    ( 0.0000,  0.0000,  0.0000)
  42 Cu     7.301179    1.888867   22.311433    ( 0.0000,  0.0000,  0.0000)
  43 Cu     9.002006   -0.013667   21.703173    ( 0.0000,  0.0000,  0.0000)
  44 Cu    11.349897   -0.083884   22.883400    ( 0.0000,  0.0000,  0.0000)
  45 Cu     9.682540    1.907008   23.500876    ( 0.0000,  0.0000,  0.0000)
  46 Cu     3.709494    1.823190   23.412332    ( 0.0000,  0.0000,  0.0000)
  47 Cu     5.524207    0.071485   22.891523    ( 0.0000,  0.0000,  0.0000)
  48 Cu     3.249622    3.674894   10.042075    ( 0.0000,  0.0000,  0.0000)
  49 Cu     1.456844    5.472569   10.572793    ( 0.0000,  0.0000,  0.0000)
  50 Cu     7.283399    5.623898   10.564900    ( 0.0000,  0.0000,  0.0000)
  51 Cu     8.978864    3.764847    9.957517    ( 0.0000,  0.0000,  0.0000)
  52 Cu    11.360233    3.744063   11.146606    ( 0.0000,  0.0000,  0.0000)
  53 Cu     9.616240    5.551887   11.716529    ( 0.0000,  0.0000,  0.0000)
  54 Cu     3.808672    5.540941   11.753483    ( 0.0000,  0.0000,  0.0000)
  55 Cu     5.584592    3.658144   11.133091    ( 0.0000,  0.0000,  0.0000)
  56 Cu     7.898961    3.722972   12.324258    ( 0.0000,  0.0000,  0.0000)
  57 Cu     6.134576    5.550730   12.909827    ( 0.0000,  0.0000,  0.0000)
  58 Cu     0.280685    5.545550   12.905411    ( 0.0000,  0.0000,  0.0000)
  59 Cu     2.023835    3.723159   12.281578    ( 0.0000,  0.0000,  0.0000)
  60 Cu     4.391066    3.702152   13.471534    ( 0.0000,  0.0000,  0.0000)
  61 Cu     2.621419    5.555797   14.080438    ( 0.0000,  0.0000,  0.0000)
  62 Cu     8.464617    5.572440   14.117012    ( 0.0000,  0.0000,  0.0000)
  63 Cu    10.224746    3.710109   13.493884    ( 0.0000,  0.0000,  0.0000)
  64 Cu     0.869845    3.701733   14.671417    ( 0.0000,  0.0000,  0.0000)
  65 Cu    10.804751    5.556691   15.260203    ( 0.0000,  0.0000,  0.0000)
  66 Cu     4.954726    5.557862   15.264094    ( 0.0000,  0.0000,  0.0000)
  67 Cu     6.716186    3.706250   14.681742    ( 0.0000,  0.0000,  0.0000)
  68 Cu     9.050734    3.705999   15.847700    ( 0.0000,  0.0000,  0.0000)
  69 Cu     7.284670    5.553969   16.454122    ( 0.0000,  0.0000,  0.0000)
  70 Cu     1.433985    5.556645   16.433116    ( 0.0000,  0.0000,  0.0000)
  71 Cu     3.201418    3.717692   15.838889    ( 0.0000,  0.0000,  0.0000)
  72 Cu     5.522040    3.703610   17.019390    ( 0.0000,  0.0000,  0.0000)
  73 Cu     3.759854    5.556323   17.615277    ( 0.0000,  0.0000,  0.0000)
  74 Cu     9.609556    5.567975   17.611901    ( 0.0000,  0.0000,  0.0000)
  75 Cu    11.381453    3.705908   17.007388    ( 0.0000,  0.0000,  0.0000)
  76 Cu     2.006614    3.709591   18.192182    ( 0.0000,  0.0000,  0.0000)
  77 Cu     0.240591    5.555530   18.780202    ( 0.0000,  0.0000,  0.0000)
  78 Cu     6.090958    5.550841   18.780054    ( 0.0000,  0.0000,  0.0000)
  79 Cu     7.855686    3.702206   18.197224    ( 0.0000,  0.0000,  0.0000)
  80 Cu    10.195663    3.721824   19.339002    ( 0.0000,  0.0000,  0.0000)
  81 Cu     8.417111    5.550804   19.980745    ( 0.0000,  0.0000,  0.0000)
[...]
  13 Cu     2.577461    1.787040   14.101981    ( 0.0000,  0.0000,  0.0000)
  14 Cu     8.434437    1.774914   14.102608    ( 0.0000,  0.0000,  0.0000)
  15 Cu    10.189652   -0.069786   13.507644    ( 0.0000,  0.0000,  0.0000)
  16 Cu     0.836420   -0.071567   14.675233    ( 0.0000,  0.0000,  0.0000)
  17 Cu    10.787968    1.785120   15.268754    ( 0.0000,  0.0000,  0.0000)
  18 Cu     4.933513    1.774190   15.260960    ( 0.0000,  0.0000,  0.0000)
  19 Cu     6.692435   -0.072215   14.674970    ( 0.0000,  0.0000,  0.0000)
  20 Cu     9.036996   -0.068949   15.845062    ( 0.0000,  0.0000,  0.0000)
  21 Cu     7.277964    1.781524   16.440039    ( 0.0000,  0.0000,  0.0000)
  22 Cu     1.428538    1.776629   16.445053    ( 0.0000,  0.0000,  0.0000)
  23 Cu     3.186835   -0.070737   15.837822    ( 0.0000,  0.0000,  0.0000)
  24 Cu     5.532422   -0.072107   17.017107    ( 0.0000,  0.0000,  0.0000)
  25 Cu     3.772343    1.779694   17.611837    ( 0.0000,  0.0000,  0.0000)
  26 Cu     9.622204    1.781979   17.623276    ( 0.0000,  0.0000,  0.0000)
  27 Cu    11.379550   -0.069666   17.015567    ( 0.0000,  0.0000,  0.0000)
  28 Cu     2.020658   -0.076151   18.194910    ( 0.0000,  0.0000,  0.0000)
  29 Cu     0.268666    1.777649   18.783431    ( 0.0000,  0.0000,  0.0000)
  30 Cu     6.118089    1.781714   18.784069    ( 0.0000,  0.0000,  0.0000)
  31 Cu     7.876814   -0.064278   18.193336    ( 0.0000,  0.0000,  0.0000)
  32 Cu    10.229159   -0.075642   19.361014    ( 0.0000,  0.0000,  0.0000)
  33 Cu     8.461280    1.780215   19.980703    ( 0.0000,  0.0000,  0.0000)
  34 Cu     2.618458    1.780689   19.950853    ( 0.0000,  0.0000,  0.0000)
  35 Cu     4.377785   -0.061143   19.352628    ( 0.0000,  0.0000,  0.0000)
  36 Cu     6.727126   -0.070133   20.545104    ( 0.0000,  0.0000,  0.0000)
  37 Cu     5.003418    1.782650   21.157164    ( 0.0000,  0.0000,  0.0000)
  38 Cu    10.803455    1.782191   21.124150    ( 0.0000,  0.0000,  0.0000)
  39 Cu     0.870525   -0.073156   20.554657    ( 0.0000,  0.0000,  0.0000)
  40 Cu     3.222345   -0.071980   21.700825    ( 0.0000,  0.0000,  0.0000)
  41 Cu     1.496824    1.777314   22.269749    ( 0.0000,  0.0000,  0.0000)
  42 Cu     7.316660    1.779179   22.346538    ( 0.0000,  0.0000,  0.0000)
  43 Cu     9.073711   -0.071672   21.716447    ( 0.0000,  0.0000,  0.0000)
  44 Cu    11.405952   -0.069248   22.888084    ( 0.0000,  0.0000,  0.0000)
  45 Cu     9.611122    1.812577   23.488890    ( 0.0000,  0.0000,  0.0000)
  46 Cu     3.824276    1.760534   23.354045    ( 0.0000,  0.0000,  0.0000)
  47 Cu     5.572368   -0.080172   22.873803    ( 0.0000,  0.0000,  0.0000)
  48 Cu     3.135961    3.606338   10.104481    ( 0.0000,  0.0000,  0.0000)
  49 Cu     1.400119    5.480893   10.569105    ( 0.0000,  0.0000,  0.0000)
  50 Cu     7.240051    5.468030   10.584299    ( 0.0000,  0.0000,  0.0000)
  51 Cu     9.056838    3.663870    9.967512    ( 0.0000,  0.0000,  0.0000)
  52 Cu    11.345993    3.630341   11.118717    ( 0.0000,  0.0000,  0.0000)
  53 Cu     9.590130    5.476279   11.754124    ( 0.0000,  0.0000,  0.0000)
  54 Cu     3.733635    5.478011   11.746732    ( 0.0000,  0.0000,  0.0000)
  55 Cu     5.461570    3.622310   11.190630    ( 0.0000,  0.0000,  0.0000)
  56 Cu     7.858064    3.630607   12.333484    ( 0.0000,  0.0000,  0.0000)
  57 Cu     6.082563    5.479257   12.911984    ( 0.0000,  0.0000,  0.0000)
  58 Cu     0.236359    5.476531   12.907956    ( 0.0000,  0.0000,  0.0000)
  59 Cu     1.956196    3.634802   12.301836    ( 0.0000,  0.0000,  0.0000)
  60 Cu     4.337857    3.631214   13.507644    ( 0.0000,  0.0000,  0.0000)
  61 Cu     2.582642    5.475914   14.102608    ( 0.0000,  0.0000,  0.0000)
  62 Cu     8.429256    5.488040   14.101981    ( 0.0000,  0.0000,  0.0000)
  63 Cu    10.199774    3.628836   13.480994    ( 0.0000,  0.0000,  0.0000)
  64 Cu     0.840640    3.628785   14.674970    ( 0.0000,  0.0000,  0.0000)
  65 Cu    10.785308    5.475190   15.260960    ( 0.0000,  0.0000,  0.0000)
  66 Cu     4.936173    5.486120   15.268754    ( 0.0000,  0.0000,  0.0000)
  67 Cu     6.688215    3.629433   14.675233    ( 0.0000,  0.0000,  0.0000)
  68 Cu     9.038630    3.630263   15.837822    ( 0.0000,  0.0000,  0.0000)
  69 Cu     7.280333    5.477629   16.445053    ( 0.0000,  0.0000,  0.0000)
  70 Cu     1.426169    5.482524   16.440039    ( 0.0000,  0.0000,  0.0000)
  71 Cu     3.185201    3.632051   15.845062    ( 0.0000,  0.0000,  0.0000)
  72 Cu     5.527755    3.631334   17.015566    ( 0.0000,  0.0000,  0.0000)
  73 Cu     3.770409    5.482978   17.623276    ( 0.0000,  0.0000,  0.0000)
  74 Cu     9.624138    5.480694   17.611837    ( 0.0000,  0.0000,  0.0000)
  75 Cu    11.384217    3.628893   17.017107    ( 0.0000,  0.0000,  0.0000)
  76 Cu     2.025019    3.636722   18.193336    ( 0.0000,  0.0000,  0.0000)
  77 Cu     0.266294    5.482714   18.784069    ( 0.0000,  0.0000,  0.0000)
  78 Cu     6.120461    5.478649   18.783431    ( 0.0000,  0.0000,  0.0000)
  79 Cu     7.872453    3.624849   18.194910    ( 0.0000,  0.0000,  0.0000)
  80 Cu    10.229580    3.639857   19.352628    ( 0.0000,  0.0000,  0.0000)
  81 Cu     8.470253    5.481689   19.950853    ( 0.0000,  0.0000,  0.0000)
  82 Cu     2.609485    5.481215   19.980703    ( 0.0000,  0.0000,  0.0000)
  83 Cu     4.377364    3.625358   19.361014    ( 0.0000,  0.0000,  0.0000)
  84 Cu     6.722320    3.627844   20.554657    ( 0.0000,  0.0000,  0.0000)
  85 Cu     4.951660    5.483191   21.124150    ( 0.0000,  0.0000,  0.0000)
  86 Cu    10.855213    5.483650   21.157164    ( 0.0000,  0.0000,  0.0000)
  87 Cu     0.875331    3.630867   20.545104    ( 0.0000,  0.0000,  0.0000)
  88 Cu     3.221916    3.629328   21.716447    ( 0.0000,  0.0000,  0.0000)
  89 Cu     1.464865    5.480179   22.346538    ( 0.0000,  0.0000,  0.0000)
  90 Cu     7.348619    5.478314   22.269749    ( 0.0000,  0.0000,  0.0000)
  91 Cu     9.074140    3.629020   21.700825    ( 0.0000,  0.0000,  0.0000)
  92 Cu    11.424163    3.620828   22.873803    ( 0.0000,  0.0000,  0.0000)
  93 Cu     9.676071    5.461534   23.354045    ( 0.0000,  0.0000,  0.0000)
  94 Cu     3.759328    5.513577   23.488890    ( 0.0000,  0.0000,  0.0000)
  95 Cu     5.554157    3.631752   22.888084    ( 0.0000,  0.0000,  0.0000)
  96 Cl     5.936504    5.412702   24.576717    ( 0.0000,  0.0000,  0.0000)
  97 Cl     1.791485    5.386046   24.700225    ( 0.0000,  0.0000,  0.0000)
  98 Cl     7.643279    1.685046   24.700224    ( 0.0000,  0.0000,  0.0000)
  99 Cl    11.788298    1.711701   24.576718    ( 0.0000,  0.0000,  0.0000)
 100 Cl     6.892553    3.553999    8.873381    ( 0.0000,  0.0000,  0.0000)
 101 Cl     5.180927    7.187307    8.766909    ( 0.0000,  0.0000,  0.0000)
 102 Cl     1.040759   -0.147001    8.873381    ( 0.0000,  0.0000,  0.0000)
 103 Cl    -0.670868    3.486309    8.766908    ( 0.0000,  0.0000,  0.0000)

Unit cell:
           periodic     x           y           z      points  spacing
  1. axis:    yes   11.703590    0.000000    0.000000    70     0.1672
  2. axis:    yes    0.000000    7.402000    0.000000    42     0.1762
  3. axis:    no     0.000000    0.000000   33.459128   192     0.1743

  Lengths:  11.703590   7.402000  33.459128
  Angles:   90.000000  90.000000  90.000000

Effective grid spacing dv^(1/3) = 0.1725

     iter     time        total  log10-change:
                         energy  eigst   dens
iter:   1 18:57:52 -7564.898047  -3.54
iter:   2 19:01:25 -7564.869858  -4.00  -2.99
iter:   3 19:05:00 -7564.862294c -4.61  -3.17
iter:   4 19:08:35 -7564.841475c -5.37  -3.21
iter:   5 19:12:10 -7564.841366c -5.28  -3.70
iter:   6 19:15:44 -7564.841231c -6.37  -4.00
iter:   7 19:19:19 -7564.840989c -6.03  -4.03c
iter:   8 19:22:55 -7564.840957c -6.84  -4.23c
iter:   9 19:26:29 -7564.840921c -6.87  -4.38c
iter:  10 19:30:04 -7564.840923c -7.80c -4.62c

Converged after 10 iterations.

Dipole moment: (17.785179, 80.566182, -0.003376) |e|*Ang

Energy contributions relative to reference atoms: (reference = -4422498.971913)

Kinetic:       +751.310252
Potential:     -824.899181
External:        +0.000000
XC:            -7489.400988
Entropy (-ST):   -0.970011
Local:           -1.366000
--------------------------
Free energy:   -7565.325928
Extrapolated:  -7564.840923

Showing only first 2 kpts
 Kpt  Band  Eigenvalues  Occupancy
  0   554      0.32417    0.77336
  0   555      0.38770    0.50073
  0   556      0.44074    0.32847
  0   557      0.49927    0.19730

  1   554      0.04380    1.82465
  1   555      0.08410    1.74858
  1   556      0.14229    1.59070
  1   557      0.14713    1.57472


Fermi level: 0.27804

No gap

Forces in eV/Ang:
  0 Cu   -0.00208   -0.02171   -0.00575
  1 Cu    0.00647    0.00559   -0.00542
  2 Cu    0.00253    0.00526    0.00832
  3 Cu    0.00104    0.01059   -0.00785
  4 Cu    0.00120    0.00146   -0.00008
  5 Cu    0.01739   -0.00146    0.00691
  6 Cu    0.00350    0.00277   -0.00335
  7 Cu   -0.00164   -0.00164    0.00714
  8 Cu   -0.00366   -0.00590    0.00771
  9 Cu    0.00232   -0.00271    0.00536
 10 Cu    0.00528   -0.00089   -0.00382
 11 Cu    0.00634   -0.00480    0.00772
 12 Cu    0.00122   -0.00158   -0.00042
 13 Cu    0.00591   -0.00251   -0.00240
 14 Cu    0.00297    0.00035    0.00081
 15 Cu    0.01000   -0.00649    0.00125
 16 Cu    0.00324    0.00342    0.00706
 17 Cu    0.00230    0.00064   -0.00359
 18 Cu    0.00046   -0.00304    0.00786
 19 Cu    0.00054   -0.00195    0.00119
 20 Cu    0.00190    0.00269   -0.00429
 21 Cu   -0.00196    0.00255   -0.00175
 22 Cu    0.00475   -0.00092   -0.00135
 23 Cu    0.00308    0.00064    0.00433
 24 Cu    0.00106    0.00140    0.00567
 25 Cu   -0.00176    0.00648    0.00935
 26 Cu   -0.00177   -0.00186   -0.00261
 27 Cu   -0.00215    0.00078    0.00311
 28 Cu    0.00052   -0.00292   -0.00126
 29 Cu   -0.00230    0.00198   -0.00349
 30 Cu   -0.00045   -0.00085   -0.00137
 31 Cu   -0.00350    0.00022    0.00214
 32 Cu   -0.00247    0.00304    0.00585
 33 Cu   -0.00152   -0.00435   -0.00268
 34 Cu   -0.00685   -0.00482    0.00297
 35 Cu   -0.00572   -0.00283   -0.00115
 36 Cu   -0.00477    0.00024    0.00477
 37 Cu    0.00164   -0.00738   -0.00812
 38 Cu   -0.00505   -0.00265   -0.00648
 39 Cu   -0.00159   -0.00275   -0.00901
 40 Cu   -0.00486    0.00034    0.00310
 41 Cu   -0.00083   -0.00141    0.00304
 42 Cu    0.00074    0.00000   -0.01356
 43 Cu   -0.01631    0.00114   -0.00461
 44 Cu   -0.00090    0.00471   -0.01070
 45 Cu    0.00404   -0.02056    0.00446
 46 Cu   -0.00211    0.00895    0.01189
 47 Cu   -0.00686    0.00663    0.00634
 48 Cu    0.00104    0.01059   -0.00785
 49 Cu    0.00253    0.00526    0.00832
 50 Cu    0.00647    0.00559   -0.00542
 51 Cu   -0.00208   -0.02171   -0.00575
 52 Cu   -0.00164   -0.00164    0.00714
 53 Cu    0.00350    0.00277   -0.00335
 54 Cu    0.01739   -0.00146    0.00691
 55 Cu    0.00120    0.00146   -0.00008
 56 Cu    0.00634   -0.00480    0.00772
 57 Cu    0.00528   -0.00089   -0.00382
 58 Cu    0.00232   -0.00271    0.00536
 59 Cu   -0.00366   -0.00590    0.00771
 60 Cu    0.01000   -0.00649    0.00125
 61 Cu    0.00297    0.00035    0.00081
 62 Cu    0.00591   -0.00251   -0.00240
 63 Cu    0.00122   -0.00158   -0.00042
 64 Cu    0.00054   -0.00195    0.00119
 65 Cu    0.00046   -0.00304    0.00786
 66 Cu    0.00230    0.00064   -0.00359
 67 Cu    0.00324    0.00342    0.00706
 68 Cu    0.00308    0.00064    0.00433
 69 Cu    0.00475   -0.00092   -0.00135
 70 Cu   -0.00196    0.00255   -0.00175
 71 Cu    0.00190    0.00269   -0.00429
 72 Cu   -0.00215    0.00078    0.00311
 73 Cu   -0.00177   -0.00186   -0.00261
 74 Cu   -0.00176    0.00648    0.00935
 75 Cu    0.00106    0.00140    0.00567
 76 Cu   -0.00350    0.00022    0.00213
 77 Cu   -0.00045   -0.00085   -0.00137
 78 Cu   -0.00230    0.00198   -0.00349
 79 Cu    0.00052   -0.00292   -0.00126
 80 Cu   -0.00572   -0.00283   -0.00115
 81 Cu   -0.00685   -0.00482    0.00297
 82 Cu   -0.00152   -0.00435   -0.00268
 83 Cu   -0.00247    0.00304    0.00585
 84 Cu   -0.00159   -0.00275   -0.00901
 85 Cu   -0.00505   -0.00265   -0.00648
 86 Cu    0.00164   -0.00738   -0.00812
 87 Cu   -0.00477    0.00024    0.00477
 88 Cu   -0.01631    0.00114   -0.00461
 89 Cu    0.00074    0.00000   -0.01356
 90 Cu   -0.00083   -0.00141    0.00304
 91 Cu   -0.00486    0.00034    0.00310
 92 Cu   -0.00686    0.00663    0.00634
 93 Cu   -0.00211    0.00895    0.01189
 94 Cu    0.00404   -0.02056    0.00446
 95 Cu   -0.00090    0.00471   -0.01070
 96 Cl    0.01256   -0.00017   -0.01378
 97 Cl    0.00452   -0.00882   -0.02032
 98 Cl    0.00452   -0.00882   -0.02032
 99 Cl    0.01256   -0.00017   -0.01378
100 Cl   -0.01716   -0.00022    0.01651
101 Cl   -0.00828   -0.00555    0.01761
102 Cl   -0.01716   -0.00022    0.01651
103 Cl   -0.00828   -0.00555    0.01761

Timing:                                      incl.     excl.
-------------------------------------------------------------------
Density initialized from wave functions:   413.216   413.214   0.3% |
 Symmetrize density:                         0.002     0.002   0.0% |
Forces:                                   2792.490  2792.490   2.3% ||
Hamiltonian:                               530.351     0.783   0.0% |
 Atomic:                                    18.593     3.451   0.0% |
  XC Correction:                            15.143    15.143   0.0% |
 Calculate atomic Hamiltonians:            203.279   203.279   0.2% |
 Communicate:                               13.879    13.879   0.0% |
 Initialize Hamiltonian:                     0.001     0.001   0.0% |
 Poisson:                                    0.330     0.330   0.0% |
 XC 3D grid:                               293.486    39.913   0.0% |
  VdW-DF integral:                         253.573     1.901   0.0% |
   Convolution:                             24.056    24.056   0.0% |
   FFT:                                      9.063     9.063   0.0% |
   gather:                                  78.774    78.774   0.1% |
   hmm1:                                    11.724    11.724   0.0% |
   hmm2:                                    12.126    12.126   0.0% |
   iFFT:                                     9.380     9.380   0.0% |
   potential:                               98.970     1.092   0.0% |
    collect:                                12.690    12.690   0.0% |
    p1:                                     49.683    49.683   0.0% |
    p2:                                     18.746    18.746   0.0% |
    sum:                                    16.759    16.759   0.0% |
   splines:                                  7.579     7.579   0.0% |
LCAO initialization:                      1033.733     0.620   0.0% |
 LCAO eigensolver:                          28.758     0.004   0.0% |
  Blacs Orbital Layouts:                     3.576     0.001   0.0% |
   General diagonalize:                      3.540     3.540   0.0% |
   Redistribute coefs:                       0.024     0.024   0.0% |
   Send coefs to domains:                    0.011     0.011   0.0% |
  Calculate projections:                     0.023     0.023   0.0% |
  Distribute overlap matrix:                24.622     0.002   0.0% |
   Scalapack redistribute:                   0.036     0.036   0.0% |
   blocked summation:                       24.584    24.584   0.0% |
  Potential matrix:                          0.231     0.231   0.0% |
  SparseAtomicCorrection:                    0.017     0.017   0.0% |
  Sum over cells:                            0.285     0.285   0.0% |
 LCAO to grid:                             997.783   997.783   0.8% |
 Set positions (LCAO WFS):                   6.573     0.024   0.0% |
  Basic WFS set positions:                   0.006     0.006   0.0% |
  Basis functions set positions:             0.001     0.001   0.0% |
  P tci:                                     0.000     0.000   0.0% |
  ST tci:                                    1.084     1.084   0.0% |
  Scalapack redistribute:                    0.087     0.087   0.0% |
  blocked summation:                         5.042     5.042   0.0% |
  mktci:                                     0.329     0.329   0.0% |
PWDescriptor:                                0.976     0.976   0.0% |
Redistribute:                                0.041     0.041   0.0% |
SCF-cycle:                               114294.275  1307.083   1.1% |
 Davidson:                               97954.239 31178.528  26.0% |---------|
  Apply H:                                5934.246  5816.376   4.9% |-|
   HMM T:                                  117.869   117.869   0.1% |
  Subspace diag:                         14682.083     0.119   0.0% |
   calc_h_matrix:                         8998.072  3112.933   2.6% ||
    Apply H:                              5885.139  5757.820   4.8% |-|
     HMM T:                                127.319   127.319   0.1% |
   diagonalize:                            324.558   324.558   0.3% |
   rotate_psi:                            5359.334  5359.334   4.5% |-|
  calc. matrices:                        32661.313 21211.127  17.7% |------|
   Apply H:                              11450.187 11216.576   9.4% |---|
    HMM T:                                 233.610   233.610   0.2% |
  diagonalize:                            2704.422  2704.422   2.3% ||
  rotate_psi:                            10793.648 10793.648   9.0% |---|
 Density:                                 6410.529     0.029   0.0% |
  Atomic density matrices:                  16.886    16.886   0.0% |
  Mix:                                    3178.780  3178.780   2.7% ||
  Multipole moments:                         1.093     1.093   0.0% |
  Pseudo density:                         3213.741  3213.712   2.7% ||
   Symmetrize density:                       0.028     0.028   0.0% |
 Hamiltonian:                             7874.386    12.204   0.0% |
  Atomic:                                  286.396    57.587   0.0% |
   XC Correction:                          228.809   228.809   0.2% |
  Calculate atomic Hamiltonians:          3005.411  3005.411   2.5% ||
  Communicate:                             242.018   242.018   0.2% |
  Poisson:                                   5.067     5.067   0.0% |
  XC 3D grid:                             4323.290   611.891   0.5% |
   VdW-DF integral:                       3711.400    27.779   0.0% |
    Convolution:                           355.217   355.217   0.3% |
    FFT:                                   134.649   134.649   0.1% |
    gather:                               1195.208  1195.208   1.0% |
    hmm1:                                  176.962   176.962   0.1% |
    hmm2:                                  182.793   182.793   0.2% |
    iFFT:                                  139.258   139.258   0.1% |
    potential:                            1499.528    15.661   0.0% |
     collect:                              195.179   195.179   0.2% |
     p1:                                   751.060   751.060   0.6% |
     p2:                                   277.975   277.975   0.2% |
     sum:                                  259.653   259.653   0.2% |
    splines:                                 0.005     0.005   0.0% |
 Orthonormalize:                           748.037     0.014   0.0% |
  calc_s_matrix:                            95.716    95.716   0.1% |
  inverse-cholesky:                         17.765    17.765   0.0% |
  projections:                             466.295   466.295   0.4% |
  rotate_psi_s:                            168.247   168.247   0.1% |
Set symmetry:                                0.002     0.002   0.0% |
Other:                                     838.284   838.284   0.7% |
-------------------------------------------------------------------
Total:                                             119903.368 100.0%

Memory usage: 2.50 GiB
Date: Sun Oct 16 19:31:27 2022
