
  ___ ___ ___ _ _ _  
 |   |   |_  | | | | 
 | | | | | . | | | | 
 |__ |  _|___|_____|  22.1.0
 |___|_|             

User:   thorkong@node030.cluster
Date:   Fri Oct 14 16:04:46 2022
Arch:   x86_64
Pid:    823
Python: 3.10.5
gpaw:   /groups/kemi/thorkong/miniconda3/envs/gpaw22/lib/python3.10/site-packages/gpaw
_gpaw:  /groups/kemi/thorkong/miniconda3/envs/gpaw22/lib/python3.10/site-packages/
        _gpaw.cpython-310-x86_64-linux-gnu.so
ase:    /groups/kemi/thorkong/miniconda3/envs/gpaw22/lib/python3.10/site-packages/ase (version 3.22.1)
numpy:  /groups/kemi/thorkong/miniconda3/envs/gpaw22/lib/python3.10/site-packages/numpy (version 1.23.0)
scipy:  /groups/kemi/thorkong/miniconda3/envs/gpaw22/lib/python3.10/site-packages/scipy (version 1.8.1)
libxc:  5.2.3
units:  Angstrom and eV
cores: 32
OpenMP: True
OMP_NUM_THREADS: 1

Input parameters:
  basis: dzp
  kpts: [4 4 1]
  mode: {ecut: 600.0,
         name: pw}
  xc: BEEF-vdW

System changes: positions, numbers, cell, pbc, initial_charges, initial_magmoms 

Initialize ...

Cu-setup:
  name: Copper
  id: f1c4d45d90492f1bbfdcb091e8418fdf
  Z: 29.0
  valence: 11
  core: 18
  charge: 0.0
  file: /groups/kemi/thorkong/miniconda3/envs/gpaw22/share/gpaw/Cu.PBE.gz
  compensation charges: gauss, rc=0.33, lmax=2
  cutoffs: 2.06(filt), 2.43(core),
  valence states:
                energy  radius
    4s(1.00)    -4.609   1.164
    4p(0.00)    -0.698   1.164
    3d(10.00)    -5.039   1.058
    *s          22.603   1.164
    *p          26.513   1.164
    *d          22.172   1.058

  LCAO basis set for Cu:
    Name: dzp
    File: /groups/kemi/thorkong/miniconda3/envs/gpaw22/share/gpaw/Cu.dzp.basis.gz
    Number of radial functions: 5
    Number of spherical harmonics: 15
      l=0, rc=8.9688 Bohr: 4s-sz confined orbital
      l=2, rc=5.1719 Bohr: 3d-sz confined orbital
      l=0, rc=5.3281 Bohr: 4s-dz split-valence wave
      l=2, rc=3.1406 Bohr: 3d-dz split-valence wave
      l=1, rc=8.9688 Bohr: p-type Gaussian polarization

Cl-setup:
  name: Chlorine
  id: 726897f06f34e53cf8e33b5885a02604
  Z: 17.0
  valence: 7
  core: 10
  charge: 0.0
  file: /groups/kemi/thorkong/miniconda3/envs/gpaw22/share/gpaw/Cl.PBE.gz
  compensation charges: gauss, rc=0.25, lmax=2
  cutoffs: 1.40(filt), 1.49(core),
  valence states:
                energy  radius
    3s(2.00)   -20.689   0.794
    3p(5.00)    -8.594   0.794
    *s           6.523   0.794
    *p          18.617   0.794
    *d           0.000   0.794

  LCAO basis set for Cl:
    Name: dzp
    File: /groups/kemi/thorkong/miniconda3/envs/gpaw22/share/gpaw/Cl.dzp.basis.gz
    Number of radial functions: 5
    Number of spherical harmonics: 13
      l=0, rc=5.1719 Bohr: 3s-sz confined orbital
      l=1, rc=6.2656 Bohr: 3p-sz confined orbital
      l=0, rc=2.8281 Bohr: 3s-dz split-valence wave
      l=1, rc=3.5156 Bohr: 3p-dz split-valence wave
      l=2, rc=6.2656 Bohr: d-type Gaussian polarization

Reference energy: -3367094.026518

Spin-paired calculation

Convergence criteria:
 Maximum [total energy] change in last 3 cyles: 0.0005 eV / electron
 Maximum integral of absolute [dens]ity change: 0.0001 electrons / valence electron
 Maximum integral of absolute [eigenst]ate change: 4e-08 eV^2 / valence electron
 Maximum number of scf [iter]ations: 333
 (Square brackets indicate name in SCF output, whereas a 'c' in
 the SCF output indicates the quantity has converged.)

Symmetries present (total): 1

  ( 1  0  0)
  ( 0  1  0)
  ( 0  0  1)

16 k-points: 4 x 4 x 1 Monkhorst-Pack grid
8 k-points in the irreducible part of the Brillouin zone
       k-points in crystal coordinates                weights
   0:     0.12500000   -0.37500000    0.00000000          2/16
   1:     0.12500000   -0.12500000    0.00000000          2/16
   2:     0.12500000    0.12500000    0.00000000          2/16
   3:     0.12500000    0.37500000    0.00000000          2/16
   4:     0.37500000   -0.37500000    0.00000000          2/16
   5:     0.37500000   -0.12500000    0.00000000          2/16
   6:     0.37500000    0.12500000    0.00000000          2/16
   7:     0.37500000    0.37500000    0.00000000          2/16

Wave functions: Plane wave expansion
  Cutoff energy: 600.000 eV
  Number of coefficients (min, max): 66642, 66743
  Pulay-stress correction: 0.000000 eV/Ang^3 (de/decut=0.000000)
  Using FFTW library
  ScaLapack parameters: grid=2x2, blocksize=64
  Wavefunction extrapolation:
    Improved wavefunction reuse through dual PAW basis 

Occupation numbers: Fermi-Dirac: width=0.1000 eV
 

Eigensolver
   Davidson(niter=2) 

Densities:
  Coarse grid: 45*42*196 grid
  Fine grid: 90*84*392 grid
  Total Charge: 0.000000 

Density mixing:
  Method: separate
  Backend: pulay
  Linear mixing parameter: 0.05
  Mixing with 5 old densities
  Damping of long wave oscillations: 50 

Hamiltonian:
  XC and Coulomb potentials evaluated on a 90*84*392 grid
  Using the BEEF-vdW Exchange-Correlation functional
  External potential:
    NoExternalPotential
 

XC parameters: BEEF-vdW with 2 nearest neighbor stencil

Memory estimate:
  Process memory now: 249.68 MiB
  Calculator: 1189.99 MiB
    Density: 47.57 MiB
      Arrays: 18.37 MiB
      Localized functions: 22.13 MiB
      Mixer: 7.07 MiB
    Hamiltonian: 12.55 MiB
      Arrays: 12.01 MiB
      XC: 0.00 MiB
      Poisson: 0.00 MiB
      vbar: 0.54 MiB
    Wavefunctions: 1129.88 MiB
      Arrays psit_nG: 531.61 MiB
      Eigensolver: 578.30 MiB
      Projections: 2.84 MiB
      Projectors: 2.55 MiB
      PW-descriptor: 14.58 MiB

Total number of cores used: 32
Parallelization over k-points: 8
Domain decomposition: 1 x 1 x 4
                      2 x 2 x 8 (xc only)

Number of atoms: 82
Number of atomic orbitals: 1210
Number of bands in calculation: 522
Number of valence electrons: 862
Bands to converge: occupied

... initialized

Initializing position-dependent things.

Density initialized from atomic densities
Creating initial wave functions:
  522 bands from LCAO basis set

      .------------------.  
     /|                  |  
    / |                  |  
   /  |                  |  
  /   |                  |  
 *    |                  |  
 |    |                  |  
 |    |                  |  
 |    |                  |  
 |    |                  |  
 |    |                  |  
 |    |     Cl    Cl     |  
 |    |                  |  
 |    |                  |  
 |Cl  |  Cl  CuCCl   Cu  |  
 |    |                  |  
 |  CuCu   CCu   CuCu    |  
 |    |  Cu    Cu    Cu  |  
 |    |                  |  
 |Cu  Cu    CuCu   Cu    |  
 |  Cu|  CCu   CuCu  Cu  |  
 |    |                  |  
 |Cu  CuCu  CuCu   Cu    |  
 |  Cu|  CuCuCuCuCu  Cu  |  
 |    |                  |  
 |Cu  | Cu    Cu         |  
 |  CuCu CuCCu CuCuCuCu  |  
 |    |                  |  
 |Cu  |       Cu         |  
 |  CuCu CCuCu CuCuCuCu  |  
 |    |Cu    Cu    Cu    |  
 |    |                  |  
 |CuCuCuCuCuCuCuCCuCu    |  
 |    |                  |  
 |    |                  |  
 |    |Cl     Cl     Cl  |  
 |    |                  |  
 |    |                  |  
 |    |                  |  
 |    |                  |  
 |    |                  |  
 |    |                  |  
 |    .------------------.  
 |   /                  /   
 |  /                  /    
 | /                  /     
 |/                  /      
 *------------------*       

Positions:
   0 Cu     2.893249   -0.009013   10.079935    ( 0.0000,  0.0000,  0.0000)
   1 Cu     1.591035    1.857611   11.262661    ( 0.0000,  0.0000,  0.0000)
   2 Cu     4.201834    1.841809   11.295676    ( 0.0000,  0.0000,  0.0000)
   3 Cu     0.277666   -0.009469   10.084997    ( 0.0000,  0.0000,  0.0000)
   4 Cu     0.277849    0.003618   12.626767    ( 0.0000,  0.0000,  0.0000)
   5 Cu     4.202668    1.862513   13.923708    ( 0.0000,  0.0000,  0.0000)
   6 Cu     1.586463    1.852775   13.921192    ( 0.0000,  0.0000,  0.0000)
   7 Cu     2.889400    0.003545   12.629227    ( 0.0000,  0.0000,  0.0000)
   8 Cu     2.895466   -0.000271   15.229461    ( 0.0000,  0.0000,  0.0000)
   9 Cu     1.588247    1.851385   16.545856    ( 0.0000,  0.0000,  0.0000)
  10 Cu     4.201591    1.852496   16.545727    ( 0.0000,  0.0000,  0.0000)
  11 Cu     0.277809    0.001734   15.236454    ( 0.0000,  0.0000,  0.0000)
  12 Cu     0.278211    0.000883   17.850829    ( 0.0000,  0.0000,  0.0000)
  13 Cu     4.204728    1.850775   19.171325    ( 0.0000,  0.0000,  0.0000)
  14 Cu     1.584458    1.852521   19.171085    ( 0.0000,  0.0000,  0.0000)
  15 Cu     2.894601    0.002325   17.849783    ( 0.0000,  0.0000,  0.0000)
  16 Cu     2.894236    0.012687   20.468701    ( 0.0000,  0.0000,  0.0000)
  17 Cu     1.584204    1.855644   21.820509    ( 0.0000,  0.0000,  0.0000)
  18 Cu     4.205662    1.855442   21.821840    ( 0.0000,  0.0000,  0.0000)
  19 Cu     0.277320    0.003097   20.469516    ( 0.0000,  0.0000,  0.0000)
  20 Cu     0.282256    0.008318   23.110120    ( 0.0000,  0.0000,  0.0000)
  21 Cu     4.232873    1.841925   24.430560    ( 0.0000,  0.0000,  0.0000)
  22 Cu     1.555398    1.844008   24.424642    ( 0.0000,  0.0000,  0.0000)
  23 Cu     2.895568   -0.008221   23.079835    ( 0.0000,  0.0000,  0.0000)
  24 Cu     2.864475    3.710782    9.962758    ( 0.0000,  0.0000,  0.0000)
  25 Cu     1.591976    5.541691   11.280182    ( 0.0000,  0.0000,  0.0000)
  26 Cu     4.202041    5.558211   11.310184    ( 0.0000,  0.0000,  0.0000)
  27 Cu     0.277822    3.707697   10.093271    ( 0.0000,  0.0000,  0.0000)
  28 Cu     0.277595    3.695861   12.630222    ( 0.0000,  0.0000,  0.0000)
  29 Cu     4.203472    5.539712   13.923294    ( 0.0000,  0.0000,  0.0000)
  30 Cu     1.585302    5.549330   13.921336    ( 0.0000,  0.0000,  0.0000)
  31 Cu     2.891979    3.696489   12.570906    ( 0.0000,  0.0000,  0.0000)
  32 Cu     2.893008    3.701406   15.220839    ( 0.0000,  0.0000,  0.0000)
  33 Cu     1.586757    5.551594   16.543688    ( 0.0000,  0.0000,  0.0000)
  34 Cu     4.203073    5.549574   16.542388    ( 0.0000,  0.0000,  0.0000)
  35 Cu     0.277652    3.699826   15.228727    ( 0.0000,  0.0000,  0.0000)
  36 Cu     0.278347    3.700871   17.844615    ( 0.0000,  0.0000,  0.0000)
  37 Cu     4.202226    5.552299   19.162667    ( 0.0000,  0.0000,  0.0000)
  38 Cu     1.587282    5.550511   19.162081    ( 0.0000,  0.0000,  0.0000)
  39 Cu     2.896094    3.699332   17.846167    ( 0.0000,  0.0000,  0.0000)
  40 Cu     2.895034    3.689744   20.468648    ( 0.0000,  0.0000,  0.0000)
  41 Cu     1.581145    5.547784   21.761122    ( 0.0000,  0.0000,  0.0000)
  42 Cu     4.208363    5.548067   21.763035    ( 0.0000,  0.0000,  0.0000)
  43 Cu     0.277513    3.699240   20.468279    ( 0.0000,  0.0000,  0.0000)
  44 Cu     0.282403    3.692379   23.126419    ( 0.0000,  0.0000,  0.0000)
  45 Cu     4.204347    5.557399   24.312269    ( 0.0000,  0.0000,  0.0000)
  46 Cu     1.585207    5.556171   24.307688    ( 0.0000,  0.0000,  0.0000)
  47 Cu     2.895682    3.707975   23.099015    ( 0.0000,  0.0000,  0.0000)
  48 Cu     6.815902    1.857266   11.266864    ( 0.0000,  0.0000,  0.0000)
  49 Cu     5.512292   -0.007627   10.084231    ( 0.0000,  0.0000,  0.0000)
  50 Cu     5.516568    0.003856   12.630858    ( 0.0000,  0.0000,  0.0000)
  51 Cu     6.820227    1.852728   13.924166    ( 0.0000,  0.0000,  0.0000)
  52 Cu     6.819210    1.851175   16.547654    ( 0.0000,  0.0000,  0.0000)
  53 Cu     5.510471    0.001413   15.229784    ( 0.0000,  0.0000,  0.0000)
  54 Cu     5.510806    0.000434   17.848219    ( 0.0000,  0.0000,  0.0000)
  55 Cu     6.820027    1.852260   19.163515    ( 0.0000,  0.0000,  0.0000)
  56 Cu     6.820094    1.855667   21.761999    ( 0.0000,  0.0000,  0.0000)
  57 Cu     5.512423    0.002682   20.470960    ( 0.0000,  0.0000,  0.0000)
  58 Cu     5.506106    0.008663   23.111884    ( 0.0000,  0.0000,  0.0000)
  59 Cu     6.819522    1.843288   24.299220    ( 0.0000,  0.0000,  0.0000)
  60 Cu     6.814604    5.542052   11.281643    ( 0.0000,  0.0000,  0.0000)
  61 Cu     5.541587    3.708289    9.968467    ( 0.0000,  0.0000,  0.0000)
  62 Cu     5.513459    3.696217   12.572367    ( 0.0000,  0.0000,  0.0000)
  63 Cu     6.820366    5.548841   13.922651    ( 0.0000,  0.0000,  0.0000)
  64 Cu     6.819498    5.551245   16.541105    ( 0.0000,  0.0000,  0.0000)
  65 Cu     5.513131    3.699586   15.221299    ( 0.0000,  0.0000,  0.0000)
  66 Cu     5.509488    3.700623   17.846432    ( 0.0000,  0.0000,  0.0000)
  67 Cu     6.819828    5.550615   19.155631    ( 0.0000,  0.0000,  0.0000)
  68 Cu     6.819845    5.546713   21.765705    ( 0.0000,  0.0000,  0.0000)
  69 Cu     5.511227    3.699174   20.471342    ( 0.0000,  0.0000,  0.0000)
  70 Cu     5.505644    3.692016   23.130762    ( 0.0000,  0.0000,  0.0000)
  71 Cu     6.819911    5.559715   24.306944    ( 0.0000,  0.0000,  0.0000)
  72 Cl     2.887818    1.790073   26.301630    ( 0.0000,  0.0000,  0.0000)
  73 Cl     4.208862    3.653676    8.090793    ( 0.0000,  0.0000,  0.0000)
  74 Cl     5.387818    5.590073   26.301630    ( 0.0000,  0.0000,  0.0000)
  75 Cl     1.608862   -0.146324    8.090793    ( 0.0000,  0.0000,  0.0000)
  76 Cl     4.308862   -0.046324    8.090793    ( 0.0000,  0.0000,  0.0000)
  77 Cl     2.887818    5.490073   26.301630    ( 0.0000,  0.0000,  0.0000)
  78 Cl     7.208862    3.753676    8.090793    ( 0.0000,  0.0000,  0.0000)
  79 Cl     0.087818    1.790073   26.301630    ( 0.0000,  0.0000,  0.0000)
  80 Cl     5.887818    1.790073   26.301630    ( 0.0000,  0.0000,  0.0000)
  81 Cl     1.508862    3.653676    8.090793    ( 0.0000,  0.0000,  0.0000)

Unit cell:
           periodic     x           y           z      points  spacing
  1. axis:    yes    7.851007    0.000000    0.000000    45     0.1745
  2. axis:    yes    0.000000    7.402000    0.000000    42     0.1762
  3. axis:    yes    0.000000    0.000000   34.393512   196     0.1755

  Lengths:   7.851007   7.402000  34.393512
  Angles:   90.000000  90.000000  90.000000

Effective grid spacing dv^(1/3) = 0.1754

     iter     time        total  log10-change:
                         energy  eigst   dens
iter:   1 16:13:51 -6670.605359
iter:   2 16:15:22 -10964.778491  +2.20  -0.62
iter:   3 16:16:36 -5753.204323  +2.23  -0.34
iter:   4 16:17:53 -5962.003082  +0.68  -1.08
iter:   5 16:19:06 -6591.470070  +0.72  -1.12
iter:   6 16:20:29 -5858.425107  -0.77  -0.73
iter:   7 16:21:43 -5988.726723  -1.49  -1.33
iter:   8 16:23:01 -5833.463246  -1.01  -1.13
iter:   9 16:24:15 -5822.439658  -1.96  -1.56
iter:  10 16:25:29 -5822.759031  -2.22  -1.56
iter:  11 16:26:48 -5819.992310  -2.81  -1.56
iter:  12 16:28:08 -5823.308426  -2.55  -1.59
iter:  13 16:29:27 -5822.627473  -2.18  -1.58
iter:  14 16:30:48 -5816.292074  -2.80  -1.60
iter:  15 16:32:04 -5822.146145  -2.23  -1.67
iter:  16 16:33:36 -5816.031144  -2.74  -1.66
iter:  17 16:34:58 -5815.017067  -2.61  -1.83
iter:  18 16:36:27 -5815.097156  -2.99  -2.03
iter:  19 16:38:12 -5814.703826c -2.83  -2.07
iter:  20 16:39:26 -5816.043991  -2.62  -2.18
iter:  21 16:40:40 -5816.211249  -3.79  -2.12
iter:  22 16:41:59 -5814.629435  -2.82  -2.09
iter:  23 16:43:16 -5814.411847  -3.32  -2.27
iter:  24 16:44:29 -5814.224611c -3.82  -2.49
iter:  25 16:45:51 -5814.523498c -3.57  -2.64
iter:  26 16:47:23 -5814.241407c -4.05  -2.46
iter:  27 16:49:03 -5814.171432c -4.24  -2.59
iter:  28 16:50:25 -5814.101988c -3.74  -2.75
iter:  29 16:51:50 -5814.098014c -4.78  -2.92
iter:  30 16:53:05 -5814.145051c -4.33  -3.02
iter:  31 16:54:20 -5814.118468c -5.50  -2.86
iter:  32 16:55:42 -5814.085984c -5.06  -2.96
iter:  33 16:56:57 -5814.090230c -5.18  -3.28
iter:  34 16:58:30 -5814.094802c -5.05  -3.34
iter:  35 16:59:44 -5814.093164c -6.43  -3.43
iter:  36 17:00:58 -5814.090035c -5.28  -3.49
iter:  37 17:02:14 -5814.089569c -6.04  -3.47
iter:  38 17:03:33 -5814.088477c -6.07  -3.61
iter:  39 17:04:54 -5814.087897c -6.37  -3.85
iter:  40 17:06:29 -5814.087532c -6.70  -3.85
iter:  41 17:07:46 -5814.087418c -7.33  -3.86
iter:  42 17:09:01 -5814.087391c -7.00  -3.92
iter:  43 17:10:16 -5814.087386c -7.60c -3.94
iter:  44 17:11:33 -5814.087340c -7.07  -3.95
iter:  45 17:12:47 -5814.087389c -7.14  -4.00c
iter:  46 17:14:02 -5814.087492c -7.35  -4.10c
iter:  47 17:15:17 -5814.087768c -6.89  -4.18c
iter:  48 17:16:32 -5814.087760c -7.32  -4.21c
iter:  49 17:17:55 -5814.087489c -6.95  -4.37c
iter:  50 17:19:18 -5814.087616c -7.54c -4.42c

Converged after 50 iterations.

Dipole moment: (-71.380340, 13.118795, 0.204152) |e|*Ang

Energy contributions relative to reference atoms: (reference = -3367094.026518)

Kinetic:       +610.463978
Potential:     -654.408216
External:        +0.000000
XC:            -5768.977081
Entropy (-ST):   -0.873071
Local:           -0.729760
--------------------------
Free energy:   -5814.524151
Extrapolated:  -5814.087616

Showing only first 2 kpts
 Kpt  Band  Eigenvalues  Occupancy
  0   429      0.89132    1.12169
  0   430      1.01451    0.54291
  0   431      1.03680    0.45934
  0   432      1.05643    0.39356

  1   429      0.59837    1.91970
  1   430      0.63094    1.89047
  1   431      0.71236    1.76868
  1   432      0.88717    1.14208


Fermi level: 0.91578

No gap

Forces in eV/Ang:
  0 Cu    0.07632    0.00447   -0.70641
  1 Cu    0.01835   -0.04066    0.43976
  2 Cu   -0.01275    0.11376    0.20612
  3 Cu    0.14801   -0.01868   -0.74332
  4 Cu   -0.02984   -0.00457   -0.16980
  5 Cu    0.01258   -0.01286    0.04122
  6 Cu   -0.00127   -0.00331    0.07375
  7 Cu    0.01803    0.00181   -0.17028
  8 Cu    0.00244    0.00216   -0.03092
  9 Cu   -0.01258   -0.00142    0.04398
 10 Cu    0.01283   -0.00243    0.03309
 11 Cu   -0.00770   -0.00498   -0.09453
 12 Cu    0.00575    0.00116   -0.05971
 13 Cu    0.00970    0.00187    0.07050
 14 Cu   -0.00719   -0.00201    0.04982
 15 Cu   -0.00107   -0.00363   -0.03382
 16 Cu   -0.00852   -0.01088   -0.04941
 17 Cu    0.00494   -0.00241    0.04887
 18 Cu   -0.00053   -0.00427    0.05426
 19 Cu    0.01160    0.00849   -0.07678
 20 Cu    0.01142   -0.16697   -0.31490
 21 Cu   -0.27596    0.01365   -0.23880
 22 Cu    0.36340    0.01758   -0.44726
 23 Cu    0.00759    0.11713   -0.19748
 24 Cu    0.38166   -0.00109    0.48587
 25 Cu    0.02011    0.03354    0.42831
 26 Cu   -0.00329   -0.13373    0.20102
 27 Cu    0.11046   -0.02314    1.07744
 28 Cu    0.00702    0.01173   -0.16996
 29 Cu    0.00990    0.01410    0.04753
 30 Cu    0.00197    0.00684    0.06562
 31 Cu    0.00496    0.00947   -0.06382
 32 Cu   -0.00963   -0.00252   -0.07141
 33 Cu    0.00514   -0.00267    0.04484
 34 Cu    0.00100    0.00287    0.03588
 35 Cu    0.00146    0.00384   -0.04385
 36 Cu    0.00093   -0.00099   -0.04372
 37 Cu   -0.00165   -0.00333    0.03865
 38 Cu   -0.00459    0.00145    0.05867
 39 Cu   -0.01248    0.00289   -0.03135
 40 Cu   -0.01103    0.01235   -0.04125
 41 Cu   -0.00447    0.00615    0.13801
 42 Cu   -0.01794    0.00188    0.18566
 43 Cu    0.01238   -0.00835   -0.07678
 44 Cu   -0.00207    0.15361   -0.31507
 45 Cu   -0.10526   -0.00425    0.33451
 46 Cu    0.08879   -0.01829    0.72662
 47 Cu    0.01420   -0.12198   -0.22399
 48 Cu   -0.00484   -0.16481    0.32377
 49 Cu   -0.08034    0.00125   -0.71561
 50 Cu    0.01719   -0.00798   -0.15273
 51 Cu   -0.01234    0.01290    0.07763
 52 Cu    0.00052    0.00088    0.04505
 53 Cu    0.00626    0.00015   -0.05986
 54 Cu   -0.00355    0.00251   -0.04631
 55 Cu   -0.00131   -0.00396    0.04812
 56 Cu   -0.00056   -0.01068    0.16998
 57 Cu   -0.00248   -0.00338   -0.06992
 58 Cu   -0.02320   -0.04013   -0.41970
 59 Cu    0.05314    0.05833   -1.46969
 60 Cu   -0.00762    0.14613    0.32282
 61 Cu   -0.19769   -0.00635    0.10415
 62 Cu   -0.00201    0.00178   -0.04794
 63 Cu   -0.01266   -0.01032    0.07152
 64 Cu   -0.00605   -0.00086    0.05944
 65 Cu    0.00841    0.00320   -0.04832
 66 Cu    0.01145    0.00112   -0.04513
 67 Cu    0.00584    0.00478    0.09091
 68 Cu    0.02194    0.00742    0.15222
 69 Cu   -0.00008    0.00418   -0.07493
 70 Cu   -0.01339    0.02549   -0.43247
 71 Cu   -0.12937   -0.00897    0.69460
 72 Cl    0.29571   -0.00149    0.23138
 73 Cl    0.48688   -0.01129   -0.23169
 74 Cl    3.54236    0.05768   -0.44094
 75 Cl   -2.33654    0.04772    0.72633
 76 Cl    2.18762    0.08872    0.76439
 77 Cl   -3.39941   -0.09622   -0.62035
 78 Cl   -3.07334    0.11671   -1.20825
 79 Cl    3.23145   -0.02071    1.28784
 80 Cl   -3.65561    0.03136    1.42206
 81 Cl    2.27320   -0.16927   -1.00951

System changes: positions 

Initializing position-dependent things.

Density initialized from wave functions
      .------------------.  
     /|                  |  
    / |                  |  
   /  |                  |  
  /   |                  |  
 *    |                  |  
 |    |                  |  
 |    |                  |  
 |    |                  |  
 |    |                  |  
 |    |                  |  
 |    |    Cl     Cl     |  
 |    |                  |  
 |    |                  |  
 | Cl |CuCl  CuCCl   Cu  |  
 |    |                  |  
 |  CuCu   CCu   CuCu    |  
 |    |  Cu    Cu    Cu  |  
 |    |                  |  
 |    Cu    CuCu   Cu    |  
 |  Cu|  CCu   CuCu  Cu  |  
 |    |                  |  
 |Cu  CuCu  CuCu   Cu    |  
 |  Cu|  CuCuCuCuCu  Cu  |  
 |    |                  |  
 |Cu  | Cu    Cu         |  
 |  CuCu CuCCu CuCuCuCu  |  
 |    |                  |  
 |Cu  |       Cu         |  
 |  CuCu CCuCu CuCuCuCu  |  
 |    |Cu    Cu    Cu    |  
 |    |                  |  
 |CuCuCuCuCuCuCu CuCu    |  
 |    |                  |  
 |    |                  |  
 |    |Cl     Cl     Cl  |  
 |    |                  |  
 |    |                  |  
 |    |                  |  
 |    |                  |  
 |    |                  |  
 |    |                  |  
 |    .------------------.  
 |   /                  /   
 |  /                  /    
 | /                  /     
 |/                  /      
 *------------------*       

Positions:
   0 Cu     2.897141   -0.008785   10.043918    ( 0.0000,  0.0000,  0.0000)
   1 Cu     1.591971    1.855538   11.285083    ( 0.0000,  0.0000,  0.0000)
   2 Cu     4.201184    1.847609   11.306186    ( 0.0000,  0.0000,  0.0000)
   3 Cu     0.285213   -0.010422   10.047097    ( 0.0000,  0.0000,  0.0000)
   4 Cu     0.276328    0.003385   12.618109    ( 0.0000,  0.0000,  0.0000)
   5 Cu     4.203309    1.861858   13.925810    ( 0.0000,  0.0000,  0.0000)
   6 Cu     1.586398    1.852606   13.924952    ( 0.0000,  0.0000,  0.0000)
   7 Cu     2.890319    0.003637   12.620545    ( 0.0000,  0.0000,  0.0000)
   8 Cu     2.895590   -0.000161   15.227884    ( 0.0000,  0.0000,  0.0000)
   9 Cu     1.587606    1.851313   16.548098    ( 0.0000,  0.0000,  0.0000)
  10 Cu     4.202245    1.852372   16.547414    ( 0.0000,  0.0000,  0.0000)
  11 Cu     0.277417    0.001480   15.231634    ( 0.0000,  0.0000,  0.0000)
  12 Cu     0.278504    0.000942   17.847784    ( 0.0000,  0.0000,  0.0000)
  13 Cu     4.205223    1.850871   19.174920    ( 0.0000,  0.0000,  0.0000)
  14 Cu     1.584091    1.852418   19.173625    ( 0.0000,  0.0000,  0.0000)
  15 Cu     2.894546    0.002140   17.848059    ( 0.0000,  0.0000,  0.0000)
  16 Cu     2.893802    0.012132   20.466182    ( 0.0000,  0.0000,  0.0000)
  17 Cu     1.584456    1.855521   21.823001    ( 0.0000,  0.0000,  0.0000)
  18 Cu     4.205635    1.855224   21.824607    ( 0.0000,  0.0000,  0.0000)
  19 Cu     0.277912    0.003530   20.465601    ( 0.0000,  0.0000,  0.0000)
  20 Cu     0.282838   -0.000195   23.094064    ( 0.0000,  0.0000,  0.0000)
  21 Cu     4.218803    1.842621   24.418384    ( 0.0000,  0.0000,  0.0000)
  22 Cu     1.573927    1.844904   24.401837    ( 0.0000,  0.0000,  0.0000)
  23 Cu     2.895955   -0.002249   23.069766    ( 0.0000,  0.0000,  0.0000)
  24 Cu     2.883935    3.710726    9.987531    ( 0.0000,  0.0000,  0.0000)
  25 Cu     1.593001    5.543401   11.302020    ( 0.0000,  0.0000,  0.0000)
  26 Cu     4.201873    5.551393   11.320433    ( 0.0000,  0.0000,  0.0000)
  27 Cu     0.283454    3.706517   10.148206    ( 0.0000,  0.0000,  0.0000)
  28 Cu     0.277953    3.696459   12.621556    ( 0.0000,  0.0000,  0.0000)
  29 Cu     4.203977    5.540431   13.925717    ( 0.0000,  0.0000,  0.0000)
  30 Cu     1.585402    5.549679   13.924682    ( 0.0000,  0.0000,  0.0000)
  31 Cu     2.892232    3.696972   12.567652    ( 0.0000,  0.0000,  0.0000)
  32 Cu     2.892517    3.701277   15.217198    ( 0.0000,  0.0000,  0.0000)
  33 Cu     1.587019    5.551458   16.545974    ( 0.0000,  0.0000,  0.0000)
  34 Cu     4.203124    5.549720   16.544217    ( 0.0000,  0.0000,  0.0000)
  35 Cu     0.277726    3.700022   15.226491    ( 0.0000,  0.0000,  0.0000)
  36 Cu     0.278394    3.700820   17.842386    ( 0.0000,  0.0000,  0.0000)
  37 Cu     4.202142    5.552129   19.164638    ( 0.0000,  0.0000,  0.0000)
  38 Cu     1.587048    5.550585   19.165072    ( 0.0000,  0.0000,  0.0000)
  39 Cu     2.895458    3.699480   17.844569    ( 0.0000,  0.0000,  0.0000)
  40 Cu     2.894472    3.690374   20.466545    ( 0.0000,  0.0000,  0.0000)
  41 Cu     1.580917    5.548097   21.768158    ( 0.0000,  0.0000,  0.0000)
  42 Cu     4.207448    5.548163   21.772501    ( 0.0000,  0.0000,  0.0000)
  43 Cu     0.278144    3.698814   20.464364    ( 0.0000,  0.0000,  0.0000)
  44 Cu     0.282297    3.700211   23.110354    ( 0.0000,  0.0000,  0.0000)
  45 Cu     4.198980    5.557182   24.329325    ( 0.0000,  0.0000,  0.0000)
  46 Cu     1.589734    5.555238   24.344736    ( 0.0000,  0.0000,  0.0000)
  47 Cu     2.896406    3.701756   23.087594    ( 0.0000,  0.0000,  0.0000)
  48 Cu     6.815655    1.848863   11.283372    ( 0.0000,  0.0000,  0.0000)
  49 Cu     5.508196   -0.007563   10.047744    ( 0.0000,  0.0000,  0.0000)
  50 Cu     5.517445    0.003449   12.623071    ( 0.0000,  0.0000,  0.0000)
  51 Cu     6.819598    1.853386   13.928124    ( 0.0000,  0.0000,  0.0000)
  52 Cu     6.819237    1.851220   16.549951    ( 0.0000,  0.0000,  0.0000)
  53 Cu     5.510790    0.001421   15.226732    ( 0.0000,  0.0000,  0.0000)
  54 Cu     5.510625    0.000562   17.845858    ( 0.0000,  0.0000,  0.0000)
  55 Cu     6.819960    1.852058   19.165969    ( 0.0000,  0.0000,  0.0000)
  56 Cu     6.820066    1.855123   21.770666    ( 0.0000,  0.0000,  0.0000)
  57 Cu     5.512296    0.002510   20.467395    ( 0.0000,  0.0000,  0.0000)
  58 Cu     5.504923    0.006617   23.090485    ( 0.0000,  0.0000,  0.0000)
  59 Cu     6.822231    1.846262   24.224285    ( 0.0000,  0.0000,  0.0000)
  60 Cu     6.814215    5.549503   11.298103    ( 0.0000,  0.0000,  0.0000)
  61 Cu     5.531508    3.707965    9.973777    ( 0.0000,  0.0000,  0.0000)
  62 Cu     5.513356    3.696308   12.569923    ( 0.0000,  0.0000,  0.0000)
  63 Cu     6.819720    5.548315   13.926298    ( 0.0000,  0.0000,  0.0000)
  64 Cu     6.819190    5.551201   16.544136    ( 0.0000,  0.0000,  0.0000)
  65 Cu     5.513560    3.699749   15.218835    ( 0.0000,  0.0000,  0.0000)
  66 Cu     5.510072    3.700680   17.844131    ( 0.0000,  0.0000,  0.0000)
  67 Cu     6.820126    5.550859   19.160266    ( 0.0000,  0.0000,  0.0000)
  68 Cu     6.820964    5.547091   21.773466    ( 0.0000,  0.0000,  0.0000)
  69 Cu     5.511223    3.699387   20.467522    ( 0.0000,  0.0000,  0.0000)
  70 Cu     5.504961    3.693316   23.108712    ( 0.0000,  0.0000,  0.0000)
  71 Cu     6.813315    5.559258   24.342360    ( 0.0000,  0.0000,  0.0000)
  72 Cl     2.902895    1.789997   26.313427    ( 0.0000,  0.0000,  0.0000)
  73 Cl     4.233686    3.653100    8.078980    ( 0.0000,  0.0000,  0.0000)
  74 Cl     5.568431    5.593014   26.279148    ( 0.0000,  0.0000,  0.0000)
  75 Cl     1.489730   -0.143891    8.127826    ( 0.0000,  0.0000,  0.0000)
  76 Cl     4.420401   -0.041800    8.129767    ( 0.0000,  0.0000,  0.0000)
  77 Cl     2.714493    5.485167   26.270001    ( 0.0000,  0.0000,  0.0000)
  78 Cl     7.052162    3.759627    8.029188    ( 0.0000,  0.0000,  0.0000)
  79 Cl     0.252579    1.789017   26.367293    ( 0.0000,  0.0000,  0.0000)
  80 Cl     5.701431    1.791672   26.374136    ( 0.0000,  0.0000,  0.0000)
  81 Cl     1.624765    3.645045    8.039321    ( 0.0000,  0.0000,  0.0000)

Unit cell:
           periodic     x           y           z      points  spacing
  1. axis:    yes    7.851007    0.000000    0.000000    45     0.1745
  2. axis:    yes    0.000000    7.402000    0.000000    42     0.1762
  3. axis:    yes    0.000000    0.000000   34.393512   196     0.1755

  Lengths:   7.851007   7.402000  34.393512
  Angles:   90.000000  90.000000  90.000000

Effective grid spacing dv^(1/3) = 0.1754

     iter     time        total  log10-change:
                         energy  eigst   dens
iter:   1 17:21:22 -5824.878958  -1.42
iter:   2 17:23:01 -5822.914828  -2.09  -1.98
iter:   3 17:24:18 -5824.629384  -2.28  -1.87
iter:   4 17:25:38 -5823.643586  -2.29  -1.89
iter:   5 17:26:52 -5819.962899  -2.11  -1.89
iter:   6 17:28:08 -5817.492189  -3.02  -2.08
iter:   7 17:29:24 -5817.397473  -3.80  -2.47
iter:   8 17:30:39 -5817.114912c -3.61  -2.47
iter:   9 17:31:54 -5817.750883  -3.40  -2.69
iter:  10 17:33:08 -5817.219171  -3.44  -2.37
iter:  11 17:34:23 -5817.143548  -4.01  -2.79
iter:  12 17:35:43 -5817.063503c -4.31  -2.78
iter:  13 17:37:06 -5817.090321c -4.67  -2.94
iter:  14 17:38:41 -5817.046010c -4.15  -2.92
iter:  15 17:40:05 -5817.067997c -4.84  -3.24
iter:  16 17:41:20 -5817.046954c -5.04  -3.05
iter:  17 17:42:36 -5817.051380c -5.05  -3.35
iter:  18 17:44:04 -5817.044147c -5.54  -3.24
iter:  19 17:45:19 -5817.048970c -5.06  -3.49
iter:  20 17:46:48 -5817.051573c -5.87  -3.31
iter:  21 17:48:11 -5817.047672c -6.12  -3.29
iter:  22 17:49:42 -5817.044070c -5.49  -3.39
iter:  23 17:50:58 -5817.042382c -6.25  -3.81
iter:  24 17:52:13 -5817.041758c -6.62  -3.79
iter:  25 17:53:29 -5817.042002c -7.14  -4.10c
iter:  26 17:54:46 -5817.041859c -6.64  -4.15c
iter:  27 17:56:01 -5817.042119c -6.69  -4.30c
iter:  28 17:57:16 -5817.042119c -6.60  -3.96
iter:  29 17:58:44 -5817.041883c -7.51c -4.41c

Converged after 29 iterations.

Dipole moment: (-81.423100, 13.219951, -0.013230) |e|*Ang

Energy contributions relative to reference atoms: (reference = -3367094.026518)

Kinetic:       +594.741154
Potential:     -644.645812
External:        +0.000000
XC:            -5765.937789
Entropy (-ST):   -0.826933
Local:           -0.785969
--------------------------
Free energy:   -5817.455350
Extrapolated:  -5817.041883

Showing only first 2 kpts
 Kpt  Band  Eigenvalues  Occupancy
  0   429      0.66875    0.95456
  0   430      0.79518    0.41003
  0   431      0.80938    0.36570
  0   432      0.85758    0.24280

  1   429      0.36885    1.89649
  1   430      0.37668    1.88853
  1   431      0.44196    1.79633
  1   432      0.66521    0.97226


Fermi level: 0.65966

No gap

Forces in eV/Ang:
  0 Cu    0.05279    0.00016   -0.61948
  1 Cu    0.03452   -0.10283    0.32152
  2 Cu    0.00194    0.03020    0.15360
  3 Cu   -0.06043    0.00441   -0.36224
  4 Cu   -0.03121   -0.00278   -0.17050
  5 Cu    0.00977   -0.01887    0.03369
  6 Cu   -0.00249   -0.00889    0.06255
  7 Cu    0.02832   -0.00022   -0.14716
  8 Cu    0.00120    0.00285   -0.02131
  9 Cu   -0.00694   -0.00013    0.02850
 10 Cu    0.00567    0.00145    0.01914
 11 Cu   -0.00610   -0.00522   -0.07527
 12 Cu    0.00196   -0.00220   -0.04662
 13 Cu    0.00377    0.00295    0.04798
 14 Cu   -0.00311   -0.00212    0.03302
 15 Cu    0.00011    0.00070   -0.01897
 16 Cu   -0.00755   -0.01789   -0.03940
 17 Cu   -0.00876   -0.00287   -0.01686
 18 Cu   -0.00083   -0.00420    0.00114
 19 Cu    0.00714    0.00778   -0.07072
 20 Cu    0.03158   -0.21145   -0.24756
 21 Cu    0.03846    0.00665    0.10886
 22 Cu    0.05550    0.00482   -0.00475
 23 Cu    0.00436    0.04066   -0.13746
 24 Cu    0.12702   -0.00893    0.09233
 25 Cu    0.03793    0.09878    0.30888
 26 Cu    0.00607   -0.03924    0.14163
 27 Cu   -0.03220   -0.01153   -0.50399
 28 Cu   -0.00679    0.00555    0.04074
 29 Cu    0.00782    0.02069    0.03680
 30 Cu   -0.00204    0.01236    0.06092
 31 Cu    0.00379    0.00546    0.01522
 32 Cu   -0.00334   -0.00350   -0.05043
 33 Cu    0.00189   -0.00258    0.02711
 34 Cu    0.00053   -0.00074    0.01679
 35 Cu    0.00111    0.00397   -0.02968
 36 Cu   -0.00095    0.00205   -0.02790
 37 Cu   -0.00018   -0.00368    0.02116
 38 Cu   -0.00558    0.00194    0.04822
 39 Cu   -0.00559   -0.00159   -0.02041
 40 Cu   -0.00994    0.01885   -0.03493
 41 Cu   -0.00555    0.00465    0.16515
 42 Cu   -0.02700    0.00150    0.11115
 43 Cu    0.00773   -0.00742   -0.06366
 44 Cu    0.02387    0.20744   -0.26406
 45 Cu   -0.03174   -0.00564    0.70322
 46 Cu   -0.14079   -0.00205    0.25912
 47 Cu    0.01150   -0.04451   -0.16775
 48 Cu   -0.01280   -0.18748    0.24146
 49 Cu    0.21275    0.00872   -0.10656
 50 Cu    0.00633   -0.00725   -0.16283
 51 Cu   -0.00718    0.01070    0.06022
 52 Cu    0.00198   -0.00151    0.02548
 53 Cu    0.00514   -0.00069   -0.04814
 54 Cu   -0.00128    0.00295   -0.02821
 55 Cu    0.00009   -0.00350    0.02909
 56 Cu    0.00969   -0.00738   -0.10083
 57 Cu    0.00135   -0.00916   -0.06113
 58 Cu   -0.03865   -0.09541   -0.30068
 59 Cu   -0.02051   -0.00240    0.64622
 60 Cu   -0.01606    0.17131    0.23749
 61 Cu    0.05996   -0.00062   -0.05682
 62 Cu    0.01090   -0.00039   -0.01078
 63 Cu   -0.00608   -0.00750    0.06473
 64 Cu   -0.00200    0.00187    0.04368
 65 Cu    0.00245    0.00349   -0.03192
 66 Cu    0.00660   -0.00076   -0.02939
 67 Cu    0.00605    0.00449    0.07330
 68 Cu    0.03409    0.00469    0.16643
 69 Cu    0.00307    0.01032   -0.06246
 70 Cu   -0.03654    0.09256   -0.32467
 71 Cu   -0.02248   -0.00789    0.50060
 72 Cl    0.37105   -0.00505    0.15802
 73 Cl    0.44778   -0.00456   -0.19179
 74 Cl    1.53010   -0.03215   -0.61520
 75 Cl   -1.21805    0.06188    0.46568
 76 Cl    0.99239    0.04159    0.24959
 77 Cl   -1.32655   -0.03142   -0.41431
 78 Cl   -1.10297    0.02753   -0.01106
 79 Cl    0.65787    0.00362    0.16480
 80 Cl   -1.09783    0.07964   -0.03663
 81 Cl    0.45284   -0.09395   -0.25804

System changes: positions 

Initializing position-dependent things.

Density initialized from wave functions
      .------------------.  
     /|                  |  
    / |                  |  
   /  |                  |  
  /   |                  |  
 *    |                  |  
 |    |                  |  
 |    |                  |  
 |    |                  |  
 |    |                  |  
 |    |                  |  
 |    |    Cl      Cl    |  
 |    |                  |  
 |    |  Cu    Cu    Cu  |  
 | Cl |CuCl     Cl Cu    |  
 |    |                  |  
 |  CuCu   CCu   CuCu    |  
 |    |  Cu    Cu    Cu  |  
 |    |                  |  
 |    CuCu  Cu     Cu    |  
 |  Cu|  CCu   CuCu  Cu  |  
 |    |                  |  
 |Cu  CuCu  CuCu   Cu    |  
 |  Cu|  CuCu  CuCu  Cu  |  
 |    |                  |  
 |Cu  | Cu    Cu         |  
 |  CuCu CCuCu CuCuCuCu  |  
 |    |                  |  
 |Cu  | Cu    Cu         |  
 |  CuCu CCuCu CuCuCuCu  |  
 |    |Cu    Cu    Cu    |  
 |    |                  |  
 |CuCuCuCulCCuCu CuCu    |  
 |    |                  |  
 |    |                  |  
 |    |Cl     Cl    Cl   |  
 |    |                  |  
 |    |                  |  
 |    |                  |  
 |    |                  |  
 |    |                  |  
 |    |                  |  
 |    .------------------.  
 |   /                  /   
 |  /                  /    
 | /                  /     
 |/                  /      
 *------------------*       

Positions:
   0 Cu     2.903903   -0.008810    9.962511    ( 0.0000,  0.0000,  0.0000)
   1 Cu     1.596735    1.841194   11.326541    ( 0.0000,  0.0000,  0.0000)
   2 Cu     4.201601    1.850718   11.326034    ( 0.0000,  0.0000,  0.0000)
   3 Cu     0.274920   -0.009585   10.003076    ( 0.0000,  0.0000,  0.0000)
   4 Cu     0.272163    0.003035   12.595437    ( 0.0000,  0.0000,  0.0000)
   5 Cu     4.204577    1.859284   13.930207    ( 0.0000,  0.0000,  0.0000)
   6 Cu     1.586055    1.851364   13.933146    ( 0.0000,  0.0000,  0.0000)
   7 Cu     2.894196    0.003586   12.601233    ( 0.0000,  0.0000,  0.0000)
   8 Cu     2.895736    0.000225   15.225156    ( 0.0000,  0.0000,  0.0000)
   9 Cu     1.586744    1.851310   16.551719    ( 0.0000,  0.0000,  0.0000)
  10 Cu     4.202921    1.852607   16.549808    ( 0.0000,  0.0000,  0.0000)
  11 Cu     0.276624    0.000783   15.221838    ( 0.0000,  0.0000,  0.0000)
  12 Cu     0.278724    0.000613   17.841729    ( 0.0000,  0.0000,  0.0000)
  13 Cu     4.205660    1.851274   19.181053    ( 0.0000,  0.0000,  0.0000)
  14 Cu     1.583722    1.852135   19.177833    ( 0.0000,  0.0000,  0.0000)
  15 Cu     2.894574    0.002280   17.845698    ( 0.0000,  0.0000,  0.0000)
  16 Cu     2.892808    0.009678   20.461053    ( 0.0000,  0.0000,  0.0000)
  17 Cu     1.583143    1.855135   21.820047    ( 0.0000,  0.0000,  0.0000)
  18 Cu     4.205521    1.854667   21.824182    ( 0.0000,  0.0000,  0.0000)
  19 Cu     0.278812    0.004556   20.456266    ( 0.0000,  0.0000,  0.0000)
  20 Cu     0.287254   -0.028786   23.061886    ( 0.0000,  0.0000,  0.0000)
  21 Cu     4.227324    1.843429   24.436625    ( 0.0000,  0.0000,  0.0000)
  22 Cu     1.577966    1.845406   24.406005    ( 0.0000,  0.0000,  0.0000)
  23 Cu     2.896500    0.002327   23.052145    ( 0.0000,  0.0000,  0.0000)
  24 Cu     2.898059    3.709455    9.995538    ( 0.0000,  0.0000,  0.0000)
  25 Cu     1.598236    5.557240   11.341785    ( 0.0000,  0.0000,  0.0000)
  26 Cu     4.202781    5.547200   11.338616    ( 0.0000,  0.0000,  0.0000)
  27 Cu     0.277627    3.705111   10.064063    ( 0.0000,  0.0000,  0.0000)
  28 Cu     0.276901    3.697130   12.629256    ( 0.0000,  0.0000,  0.0000)
  29 Cu     4.204994    5.543252   13.930493    ( 0.0000,  0.0000,  0.0000)
  30 Cu     1.585088    5.551382   13.932729    ( 0.0000,  0.0000,  0.0000)
  31 Cu     2.892723    3.697655   12.570532    ( 0.0000,  0.0000,  0.0000)
  32 Cu     2.892141    3.700802   15.210722    ( 0.0000,  0.0000,  0.0000)
  33 Cu     1.587236    5.551116   16.549386    ( 0.0000,  0.0000,  0.0000)
  34 Cu     4.203189    5.549583   16.546242    ( 0.0000,  0.0000,  0.0000)
  35 Cu     0.277870    3.700551   15.222700    ( 0.0000,  0.0000,  0.0000)
  36 Cu     0.278248    3.701126   17.838848    ( 0.0000,  0.0000,  0.0000)
  37 Cu     4.202134    5.551637   19.167260    ( 0.0000,  0.0000,  0.0000)
  38 Cu     1.586296    5.550848   19.171369    ( 0.0000,  0.0000,  0.0000)
  39 Cu     2.894789    3.699220   17.841974    ( 0.0000,  0.0000,  0.0000)
  40 Cu     2.893162    3.692951   20.461970    ( 0.0000,  0.0000,  0.0000)
  41 Cu     1.580168    5.548699   21.790407    ( 0.0000,  0.0000,  0.0000)
  42 Cu     4.203760    5.548358   21.786469    ( 0.0000,  0.0000,  0.0000)
  43 Cu     0.279121    3.697838   20.456045    ( 0.0000,  0.0000,  0.0000)
  44 Cu     0.285751    3.728370   23.075806    ( 0.0000,  0.0000,  0.0000)
  45 Cu     4.195558    5.556418   24.426803    ( 0.0000,  0.0000,  0.0000)
  46 Cu     1.568530    5.555142   24.374112    ( 0.0000,  0.0000,  0.0000)
  47 Cu     2.897905    3.696679   23.065905    ( 0.0000,  0.0000,  0.0000)
  48 Cu     6.813868    1.823694   11.314577    ( 0.0000,  0.0000,  0.0000)
  49 Cu     5.539654   -0.006323   10.040183    ( 0.0000,  0.0000,  0.0000)
  50 Cu     5.518169    0.002493   12.601316    ( 0.0000,  0.0000,  0.0000)
  51 Cu     6.818700    1.854785   13.935940    ( 0.0000,  0.0000,  0.0000)
  52 Cu     6.819516    1.850994   16.553125    ( 0.0000,  0.0000,  0.0000)
  53 Cu     5.511461    0.001320   15.220459    ( 0.0000,  0.0000,  0.0000)
  54 Cu     5.510480    0.000959   17.842304    ( 0.0000,  0.0000,  0.0000)
  55 Cu     6.819988    1.851599   19.169629    ( 0.0000,  0.0000,  0.0000)
  56 Cu     6.821465    1.854178   21.754325    ( 0.0000,  0.0000,  0.0000)
  57 Cu     5.512518    0.001230   20.459364    ( 0.0000,  0.0000,  0.0000)
  58 Cu     5.499617   -0.006666   23.051805    ( 0.0000,  0.0000,  0.0000)
  59 Cu     6.818706    1.845285   24.333131    ( 0.0000,  0.0000,  0.0000)
  60 Cu     6.811988    5.572549   11.328747    ( 0.0000,  0.0000,  0.0000)
  61 Cu     5.542272    3.707945    9.964479    ( 0.0000,  0.0000,  0.0000)
  62 Cu     5.514946    3.696233   12.568893    ( 0.0000,  0.0000,  0.0000)
  63 Cu     6.818983    5.547348   13.934828    ( 0.0000,  0.0000,  0.0000)
  64 Cu     6.818967    5.551479   16.549771    ( 0.0000,  0.0000,  0.0000)
  65 Cu     5.513821    3.700216   15.214769    ( 0.0000,  0.0000,  0.0000)
  66 Cu     5.510897    3.700559   17.840395    ( 0.0000,  0.0000,  0.0000)
  67 Cu     6.820933    5.551452   19.169818    ( 0.0000,  0.0000,  0.0000)
  68 Cu     6.825627    5.547686   21.795743    ( 0.0000,  0.0000,  0.0000)
  69 Cu     5.511666    3.700826   20.459353    ( 0.0000,  0.0000,  0.0000)
  70 Cu     5.499852    3.706346   23.066721    ( 0.0000,  0.0000,  0.0000)
  71 Cu     6.811486    5.558220   24.406802    ( 0.0000,  0.0000,  0.0000)
  72 Cl     2.953036    1.789288   26.333637    ( 0.0000,  0.0000,  0.0000)
  73 Cl     4.292787    3.652568    8.053918    ( 0.0000,  0.0000,  0.0000)
  74 Cl     5.750013    5.587766   26.195478    ( 0.0000,  0.0000,  0.0000)
  75 Cl     1.339939   -0.135512    8.186904    ( 0.0000,  0.0000,  0.0000)
  76 Cl     4.539363   -0.036783    8.157364    ( 0.0000,  0.0000,  0.0000)
  77 Cl     2.560627    5.481693   26.217160    ( 0.0000,  0.0000,  0.0000)
  78 Cl     6.926907    3.762320    8.040698    ( 0.0000,  0.0000,  0.0000)
  79 Cl     0.312126    1.789763   26.377023    ( 0.0000,  0.0000,  0.0000)
  80 Cl     5.583227    1.802781   26.353450    ( 0.0000,  0.0000,  0.0000)
  81 Cl     1.665224    3.633374    8.013168    ( 0.0000,  0.0000,  0.0000)

Unit cell:
           periodic     x           y           z      points  spacing
  1. axis:    yes    7.851007    0.000000    0.000000    45     0.1745
  2. axis:    yes    0.000000    7.402000    0.000000    42     0.1762
  3. axis:    yes    0.000000    0.000000   34.393512   196     0.1755

  Lengths:   7.851007   7.402000  34.393512
  Angles:   90.000000  90.000000  90.000000

Effective grid spacing dv^(1/3) = 0.1754

     iter     time        total  log10-change:
                         energy  eigst   dens
iter:   1 18:00:49 -5821.525637  -1.57
iter:   2 18:02:05 -5829.808705  -1.96  -2.00
iter:   3 18:03:18 -5831.349265  -1.92  -1.79
iter:   4 18:04:32 -5818.918796  -2.39  -1.72
iter:   5 18:06:04 -5818.803083  -3.30  -2.29
iter:   6 18:07:23 -5818.004056  -3.42  -2.34
iter:   7 18:08:37 -5817.939047  -3.92  -2.64
iter:   8 18:10:10 -5817.916311c -3.77  -2.73
iter:   9 18:11:29 -5817.882890c -4.19  -2.83
iter:  10 18:12:45 -5817.891447c -5.17  -2.97
iter:  11 18:14:14 -5817.869975c -4.97  -2.93
iter:  12 18:15:35 -5817.869356c -4.92  -3.03
iter:  13 18:16:52 -5817.856423c -4.27  -3.08
iter:  14 18:18:06 -5817.864582c -5.14  -3.29
iter:  15 18:19:20 -5817.856910c -5.22  -3.29
iter:  16 18:20:34 -5817.861676c -5.05  -3.37
iter:  17 18:21:49 -5817.855852c -5.27  -3.27
iter:  18 18:23:10 -5817.855967c -5.97  -3.64
iter:  19 18:24:57 -5817.854664c -6.06  -3.71
iter:  20 18:26:15 -5817.853562c -6.65  -3.88
iter:  21 18:27:29 -5817.853729c -6.88  -4.07c
iter:  22 18:28:42 -5817.853287c -6.96  -4.12c
iter:  23 18:29:56 -5817.853580c -6.67  -4.21c
iter:  24 18:31:27 -5817.853213c -6.94  -4.36c
iter:  25 18:32:48 -5817.853361c -7.42c -4.33c

Converged after 25 iterations.

Dipole moment: (-82.959060, 13.908353, 0.035638) |e|*Ang

Energy contributions relative to reference atoms: (reference = -3367094.026518)

Kinetic:       +602.456513
Potential:     -651.820994
External:        +0.000000
XC:            -5767.351703
Entropy (-ST):   -0.780955
Local:           -0.746699
--------------------------
Free energy:   -5818.243838
Extrapolated:  -5817.853361

Showing only first 2 kpts
 Kpt  Band  Eigenvalues  Occupancy
  0   429      0.72955    0.84437
  0   430      0.83637    0.40136
  0   431      0.88229    0.27382
  0   432      0.94008    0.16345

  1   429      0.41366    1.89013
  1   430      0.44536    1.85217
  1   431      0.48496    1.78797
  1   432      0.71944    0.89406


Fermi level: 0.69817

No gap

Forces in eV/Ang:
  0 Cu    0.11738    0.00425   -0.27096
  1 Cu   -0.02216    0.01561    0.06370
  2 Cu   -0.00720   -0.00951    0.02289
  3 Cu   -0.57193    0.07592    0.84847
  4 Cu   -0.00425   -0.00322   -0.02311
  5 Cu    0.00674   -0.03020    0.02137
  6 Cu   -0.00114   -0.03180    0.04628
  7 Cu    0.03698   -0.00313   -0.08987
  8 Cu    0.00215    0.00266   -0.00835
  9 Cu   -0.00066   -0.00125    0.00907
 10 Cu    0.00001    0.00170    0.00726
 11 Cu   -0.00473   -0.00286   -0.03326
 12 Cu    0.00175   -0.00547   -0.01958
 13 Cu   -0.00646    0.00287    0.00822
 14 Cu    0.00808   -0.00138   -0.00646
 15 Cu    0.00120    0.00101   -0.00343
 16 Cu   -0.00329   -0.02920   -0.02253
 17 Cu   -0.02737   -0.00589   -0.00385
 18 Cu    0.00198   -0.00712    0.00008
 19 Cu    0.00769   -0.01819   -0.05035
 20 Cu   -0.08259    0.04856   -0.05184
 21 Cu   -0.00233    0.01413   -0.27536
 22 Cu    0.02550    0.00241   -0.04203
 23 Cu    0.03106   -0.00922   -0.00005
 24 Cu    0.03434   -0.01410   -0.05061
 25 Cu   -0.02183   -0.01833    0.04913
 26 Cu   -0.00958    0.00951    0.01024
 27 Cu    0.11531   -0.01161   -0.17022
 28 Cu   -0.01030    0.00345   -0.19915
 29 Cu    0.00456    0.03059    0.02307
 30 Cu    0.00049    0.03294    0.04979
 31 Cu   -0.00144    0.00230    0.04129
 32 Cu    0.00643   -0.00232   -0.00460
 33 Cu    0.00313    0.00014    0.01187
 34 Cu   -0.00139   -0.00103    0.00417
 35 Cu    0.00098    0.00293    0.02868
 36 Cu   -0.00107    0.00501   -0.00324
 37 Cu   -0.00250   -0.00244    0.00027
 38 Cu   -0.00115    0.00158    0.02650
 39 Cu    0.00024   -0.00163   -0.00516
 40 Cu   -0.00574    0.02962   -0.02221
 41 Cu    0.03541    0.00298    0.01690
 42 Cu   -0.03326    0.00348    0.11011
 43 Cu    0.00699    0.01912   -0.04324
 44 Cu   -0.08556   -0.05359   -0.06897
 45 Cu   -0.13424   -0.00742    0.17521
 46 Cu   -0.59572    0.04038   -0.95542
 47 Cu    0.03054    0.00733   -0.02270
 48 Cu    0.07827    0.04745    0.09717
 49 Cu    0.32244    0.01411    0.49759
 50 Cu   -0.02715   -0.00531    0.01615
 51 Cu   -0.00517   -0.01232    0.04021
 52 Cu    0.00101   -0.00452    0.00397
 53 Cu    0.00217   -0.00043   -0.02686
 54 Cu   -0.00249   -0.00041   -0.00921
 55 Cu   -0.00094   -0.00197   -0.04341
 56 Cu    0.01800   -0.00805    0.26473
 57 Cu   -0.00263   -0.03252   -0.04813
 58 Cu    0.03679    0.01210   -0.06313
 59 Cu    0.10453    0.00489    0.11844
 60 Cu    0.07976   -0.05471    0.08645
 61 Cu    0.02334   -0.00157    0.23211
 62 Cu    0.02346   -0.00033   -0.00596
 63 Cu   -0.00509    0.01284    0.04684
 64 Cu   -0.00117    0.00527    0.01955
 65 Cu   -0.00707    0.00239    0.00118
 66 Cu    0.00141    0.00111   -0.00756
 67 Cu    0.00445    0.00314    0.03290
 68 Cu   -0.00043    0.00318    0.05290
 69 Cu    0.00011    0.03301   -0.04761
 70 Cu    0.04096   -0.01781   -0.08245
 71 Cu    0.83696   -0.03019   -1.23253
 72 Cl   -0.14603   -0.01087    0.24498
 73 Cl   -0.18577   -0.00833   -0.21189
 74 Cl   -0.12530   -0.02392    1.16682
 75 Cl   -0.02139   -0.01131   -0.77363
 76 Cl    0.08732    0.00668   -0.42507
 77 Cl    0.07322   -0.04346    0.86611
 78 Cl   -0.06968    0.02621   -0.09454
 79 Cl    0.09540    0.00573    0.01854
 80 Cl   -0.09184    0.06636    0.10948
 81 Cl    0.03356   -0.06399    0.01489

System changes: positions 

Initializing position-dependent things.

Density initialized from wave functions
      .------------------.  
     /|                  |  
    / |                  |  
   /  |                  |  
  /   |                  |  
 *    |                  |  
 |    |                  |  
 |    |                  |  
 |    |                  |  
 |    |                  |  
 |    |                  |  
 |    |    Cl      Cl    |  
 |    |                  |  
 |    |        Cu        |  
 | Cl |CCCl     Cl CuCu  |  
 |    |                  |  
 |  CuCu   CCu   CuCu    |  
 |    |  Cu    Cu  CuCu  |  
 |    |                  |  
 |    CuCu  Cu     Cu    |  
 |  Cu|  CCu   CuCu  Cu  |  
 |    |                  |  
 |Cu  CuCu  Cu     Cu    |  
 |  Cu|  CuCu  CuCu  Cu  |  
 |    |                  |  
 |Cu  | Cu    Cu         |  
 |  CuCu CCuCu CuCuCuCu  |  
 |    |                  |  
 |Cu  | Cu    Cu         |  
 |  CuCu CCuCu CuCuCuCu  |  
 |    |Cu    Cu    Cu    |  
 |    |                  |  
 |CuCuCuCulCCuCu CuCu    |  
 |    |                  |  
 |    |                  |  
 |    | Cl    Cl    Cl   |  
 |    |                  |  
 |    |                  |  
 |    |                  |  
 |    |                  |  
 |    |                  |  
 |    |                  |  
 |    .------------------.  
 |   /                  /   
 |  /                  /    
 | /                  /     
 |/                  /      
 *------------------*       

Positions:
   0 Cu     2.916484   -0.008444    9.911150    ( 0.0000,  0.0000,  0.0000)
   1 Cu     1.596401    1.837733   11.346236    ( 0.0000,  0.0000,  0.0000)
   2 Cu     4.201104    1.850986   11.334795    ( 0.0000,  0.0000,  0.0000)
   3 Cu     0.221485   -0.002669   10.062209    ( 0.0000,  0.0000,  0.0000)
   4 Cu     0.270381    0.002634   12.585730    ( 0.0000,  0.0000,  0.0000)
   5 Cu     4.205598    1.855771   13.933572    ( 0.0000,  0.0000,  0.0000)
   6 Cu     1.585838    1.848163   13.939982    ( 0.0000,  0.0000,  0.0000)
   7 Cu     2.898741    0.003295   12.586808    ( 0.0000,  0.0000,  0.0000)
   8 Cu     2.895975    0.000589   15.223495    ( 0.0000,  0.0000,  0.0000)
   9 Cu     1.586391    1.851198   16.553749    ( 0.0000,  0.0000,  0.0000)
  10 Cu     4.203155    1.852833   16.551263    ( 0.0000,  0.0000,  0.0000)
  11 Cu     0.275940    0.000296   15.215595    ( 0.0000,  0.0000,  0.0000)
  12 Cu     0.278954    0.000024   17.837955    ( 0.0000,  0.0000,  0.0000)
  13 Cu     4.205246    1.851661   19.183864    ( 0.0000,  0.0000,  0.0000)
  14 Cu     1.584302    1.851918   19.178703    ( 0.0000,  0.0000,  0.0000)
  15 Cu     2.894687    0.002413   17.844589    ( 0.0000,  0.0000,  0.0000)
  16 Cu     2.892182    0.006294   20.457336    ( 0.0000,  0.0000,  0.0000)
  17 Cu     1.580309    1.854488   21.818745    ( 0.0000,  0.0000,  0.0000)
  18 Cu     4.205656    1.853855   21.824075    ( 0.0000,  0.0000,  0.0000)
  19 Cu     0.279793    0.003312   20.448692    ( 0.0000,  0.0000,  0.0000)
  20 Cu     0.281510   -0.034201   23.046403    ( 0.0000,  0.0000,  0.0000)
  21 Cu     4.229830    1.844944   24.418507    ( 0.0000,  0.0000,  0.0000)
  22 Cu     1.581742    1.845795   24.403488    ( 0.0000,  0.0000,  0.0000)
  23 Cu     2.899405    0.003114   23.046133    ( 0.0000,  0.0000,  0.0000)
  24 Cu     2.905997    3.707794    9.994045    ( 0.0000,  0.0000,  0.0000)
  25 Cu     1.598090    5.560289   11.359631    ( 0.0000,  0.0000,  0.0000)
  26 Cu     4.202246    5.546558   11.345710    ( 0.0000,  0.0000,  0.0000)
  27 Cu     0.285826    3.703612   10.021537    ( 0.0000,  0.0000,  0.0000)
  28 Cu     0.275651    3.697662   12.614315    ( 0.0000,  0.0000,  0.0000)
  29 Cu     4.205739    5.546882   13.934137    ( 0.0000,  0.0000,  0.0000)
  30 Cu     1.585027    5.554839   13.939818    ( 0.0000,  0.0000,  0.0000)
  31 Cu     2.892763    3.698090   12.575078    ( 0.0000,  0.0000,  0.0000)
  32 Cu     2.892572    3.700438   15.208112    ( 0.0000,  0.0000,  0.0000)
  33 Cu     1.587585    5.551012   16.551592    ( 0.0000,  0.0000,  0.0000)
  34 Cu     4.203090    5.549447   16.547304    ( 0.0000,  0.0000,  0.0000)
  35 Cu     0.278005    3.700986   15.223917    ( 0.0000,  0.0000,  0.0000)
  36 Cu     0.278106    3.701666   17.837356    ( 0.0000,  0.0000,  0.0000)
  37 Cu     4.201912    5.551256   19.168183    ( 0.0000,  0.0000,  0.0000)
  38 Cu     1.585941    5.551075   19.175829    ( 0.0000,  0.0000,  0.0000)
  39 Cu     2.894580    3.698991   17.840637    ( 0.0000,  0.0000,  0.0000)
  40 Cu     2.892215    3.696413   20.458472    ( 0.0000,  0.0000,  0.0000)
  41 Cu     1.583015    5.549165   21.799412    ( 0.0000,  0.0000,  0.0000)
  42 Cu     4.199604    5.548729   21.800885    ( 0.0000,  0.0000,  0.0000)
  43 Cu     0.280067    3.699180   20.449432    ( 0.0000,  0.0000,  0.0000)
  44 Cu     0.279418    3.733194   23.058029    ( 0.0000,  0.0000,  0.0000)
  45 Cu     4.182605    5.555510   24.474972    ( 0.0000,  0.0000,  0.0000)
  46 Cu     1.509326    5.558635   24.300702    ( 0.0000,  0.0000,  0.0000)
  47 Cu     2.901088    3.695557   23.056535    ( 0.0000,  0.0000,  0.0000)
  48 Cu     6.820118    1.819330   11.333706    ( 0.0000,  0.0000,  0.0000)
  49 Cu     5.578376   -0.004671   10.080832    ( 0.0000,  0.0000,  0.0000)
  50 Cu     5.516044    0.001704   12.595361    ( 0.0000,  0.0000,  0.0000)
  51 Cu     6.817940    1.854181   13.942119    ( 0.0000,  0.0000,  0.0000)
  52 Cu     6.819699    1.850523   16.554560    ( 0.0000,  0.0000,  0.0000)
  53 Cu     5.511879    0.001248   15.215975    ( 0.0000,  0.0000,  0.0000)
  54 Cu     5.510211    0.001057   17.840283    ( 0.0000,  0.0000,  0.0000)
  55 Cu     6.819914    1.851270   19.167080    ( 0.0000,  0.0000,  0.0000)
  56 Cu     6.823509    1.853151   21.772113    ( 0.0000,  0.0000,  0.0000)
  57 Cu     5.512361   -0.002048   20.452424    ( 0.0000,  0.0000,  0.0000)
  58 Cu     5.501047   -0.010078   23.033100    ( 0.0000,  0.0000,  0.0000)
  59 Cu     6.826703    1.845415   24.379195    ( 0.0000,  0.0000,  0.0000)
  60 Cu     6.818220    5.575557   11.346750    ( 0.0000,  0.0000,  0.0000)
  61 Cu     5.547818    3.707797    9.981736    ( 0.0000,  0.0000,  0.0000)
  62 Cu     5.517531    3.696181   12.568001    ( 0.0000,  0.0000,  0.0000)
  63 Cu     6.818284    5.548143   13.941824    ( 0.0000,  0.0000,  0.0000)
  64 Cu     6.818786    5.552034   16.553402    ( 0.0000,  0.0000,  0.0000)
  65 Cu     5.513294    3.700583   15.213485    ( 0.0000,  0.0000,  0.0000)
  66 Cu     5.511303    3.700616   17.838458    ( 0.0000,  0.0000,  0.0000)
  67 Cu     6.821596    5.551929   19.175946    ( 0.0000,  0.0000,  0.0000)
  68 Cu     6.827163    5.548167   21.807917    ( 0.0000,  0.0000,  0.0000)
  69 Cu     5.511824    3.704200   20.452410    ( 0.0000,  0.0000,  0.0000)
  70 Cu     5.501719    3.709167   23.045209    ( 0.0000,  0.0000,  0.0000)
  71 Cu     6.884068    5.555225   24.320866    ( 0.0000,  0.0000,  0.0000)
  72 Cl     2.957207    1.788098   26.361973    ( 0.0000,  0.0000,  0.0000)
  73 Cl     4.296580    3.651654    8.026853    ( 0.0000,  0.0000,  0.0000)
  74 Cl     5.801733    5.583944   26.269353    ( 0.0000,  0.0000,  0.0000)
  75 Cl     1.286660   -0.133671    8.139357    ( 0.0000,  0.0000,  0.0000)
  76 Cl     4.588006   -0.034471    8.129801    ( 0.0000,  0.0000,  0.0000)
  77 Cl     2.513708    5.476674   26.274947    ( 0.0000,  0.0000,  0.0000)
  78 Cl     6.877235    3.765578    8.035647    ( 0.0000,  0.0000,  0.0000)
  79 Cl     0.342118    1.790503   26.382579    ( 0.0000,  0.0000,  0.0000)
  80 Cl     5.533673    1.812329   26.356848    ( 0.0000,  0.0000,  0.0000)
  81 Cl     1.682907    3.623774    8.005181    ( 0.0000,  0.0000,  0.0000)

Unit cell:
           periodic     x           y           z      points  spacing
  1. axis:    yes    7.851007    0.000000    0.000000    45     0.1745
  2. axis:    yes    0.000000    7.402000    0.000000    42     0.1762
  3. axis:    yes    0.000000    0.000000   34.393512   196     0.1755

  Lengths:   7.851007   7.402000  34.393512
  Angles:   90.000000  90.000000  90.000000

Effective grid spacing dv^(1/3) = 0.1754

     iter     time        total  log10-change:
                         energy  eigst   dens
iter:   1 18:34:47 -5823.890433  -1.62
iter:   2 18:36:02 -5822.925778  -1.93  -1.93
iter:   3 18:37:16 -5820.118787  -2.49  -1.97
iter:   4 18:38:31 -5818.589712  -3.62  -2.18
iter:   5 18:39:49 -5818.675815  -3.12  -2.52
iter:   6 18:41:23 -5818.517285c -4.42  -2.40
iter:   7 18:42:44 -5818.216483  -3.21  -2.45
iter:   8 18:44:00 -5818.179475c -3.97  -2.81
iter:   9 18:45:14 -5818.217600c -4.02  -2.79
iter:  10 18:46:31 -5818.131625c -4.40  -2.73
iter:  11 18:47:52 -5818.123546c -4.25  -2.90
iter:  12 18:49:22 -5818.111506c -4.94  -3.08
iter:  13 18:50:35 -5818.106244c -4.58  -3.16
iter:  14 18:51:49 -5818.091396c -5.44  -3.17
iter:  15 18:53:06 -5818.097952c -4.93  -3.41
iter:  16 18:54:22 -5818.092397c -5.90  -3.52
iter:  17 18:56:07 -5818.094074c -5.89  -3.78
iter:  18 18:57:23 -5818.091381c -6.12  -3.56
iter:  19 18:58:56 -5818.091252c -5.88  -3.87
iter:  20 19:00:13 -5818.091380c -6.25  -3.71
iter:  21 19:01:44 -5818.091193c -7.11  -3.97
iter:  22 19:03:08 -5818.091067c -6.83  -4.10c
iter:  23 19:04:53 -5818.091284c -6.86  -4.28c
iter:  24 19:06:24 -5818.091526c -6.77  -4.16c
iter:  25 19:08:01 -5818.091280c -7.92c -4.32c

Converged after 25 iterations.

Dipole moment: (-81.893686, 13.789334, -0.011623) |e|*Ang

Energy contributions relative to reference atoms: (reference = -3367094.026518)

Kinetic:       +592.224577
Potential:     -643.498430
External:        +0.000000
XC:            -5765.607828
Entropy (-ST):   -0.787389
Local:           -0.815905
--------------------------
Free energy:   -5818.484975
Extrapolated:  -5818.091280

Showing only first 2 kpts
 Kpt  Band  Eigenvalues  Occupancy
  0   429      0.66317    0.87257
  0   430      0.77411    0.40664
  0   431      0.82032    0.27701
  0   432      0.88356    0.15740

  1   429      0.34462    1.89854
  1   430      0.38924    1.84589
  1   431      0.42610    1.78459
  1   432      0.66050    0.88573


Fermi level: 0.63755

No gap

Forces in eV/Ang:
  0 Cu   -0.01766   -0.00879   -0.33888
  1 Cu    0.01326    0.04087   -0.07034
  2 Cu   -0.01555   -0.01488   -0.04186
  3 Cu    0.25942    0.00206   -0.13305
  4 Cu    0.02498   -0.00508    0.18641
  5 Cu   -0.00118   -0.02018    0.00808
  6 Cu   -0.00493   -0.01693    0.01835
  7 Cu    0.01537   -0.00460   -0.06046
  8 Cu    0.00270    0.00228   -0.00475
  9 Cu    0.00136   -0.00289   -0.00278
 10 Cu   -0.00103   -0.00040   -0.00136
 11 Cu   -0.00309   -0.00116    0.00162
 12 Cu    0.00225   -0.00664   -0.00976
 13 Cu   -0.00718    0.00212   -0.00728
 14 Cu    0.00915   -0.00076   -0.01937
 15 Cu    0.00139   -0.00071   -0.00403
 16 Cu    0.00392   -0.02084   -0.01194
 17 Cu   -0.00880   -0.00613   -0.01334
 18 Cu   -0.00378   -0.00701   -0.05589
 19 Cu   -0.00613   -0.00095   -0.02662
 20 Cu   -0.05013    0.31452   -0.08240
 21 Cu   -0.06327    0.01001   -0.18168
 22 Cu    0.04560    0.00241   -0.02955
 23 Cu    0.03220   -0.01406    0.05621
 24 Cu    0.02243   -0.01127   -0.05245
 25 Cu    0.00711   -0.03418   -0.09145
 26 Cu   -0.02030    0.01814   -0.05134
 27 Cu    0.12110   -0.00929   -0.08924
 28 Cu    0.00281    0.00141   -0.14508
 29 Cu   -0.00244    0.01964    0.00979
 30 Cu   -0.00187    0.01701    0.02047
 31 Cu    0.00410    0.00111    0.03795
 32 Cu    0.00744   -0.00159    0.01270
 33 Cu    0.00385    0.00285    0.00311
 34 Cu   -0.00140    0.00109   -0.00107
 35 Cu    0.00110    0.00177    0.00825
 36 Cu    0.00036    0.00627    0.00413
 37 Cu   -0.00350   -0.00118   -0.00105
 38 Cu    0.00141    0.00107   -0.00431
 39 Cu    0.00129    0.00037   -0.00298
 40 Cu    0.00245    0.02012   -0.01337
 41 Cu    0.04213    0.00202   -0.20354
 42 Cu   -0.01188    0.00340    0.08249
 43 Cu   -0.00762    0.00071   -0.02311
 44 Cu   -0.03946   -0.31043   -0.08719
 45 Cu    0.00910   -0.01068    0.40381
 46 Cu    0.41465   -0.01536    0.35826
 47 Cu    0.02380    0.01992    0.04815
 48 Cu    0.04579    0.23343    0.07783
 49 Cu   -0.22109    0.00130   -0.09959
 50 Cu   -0.02779   -0.00440    0.15420
 51 Cu    0.00706    0.00229    0.02127
 52 Cu   -0.00007   -0.00548   -0.01147
 53 Cu    0.00012   -0.00018    0.00410
 54 Cu   -0.00305   -0.00352   -0.00768
 55 Cu   -0.00090   -0.00109   -0.01328
 56 Cu    0.00445   -0.00701    0.19129
 57 Cu    0.00346   -0.01496   -0.02571
 58 Cu    0.01416    0.02355    0.07981
 59 Cu    0.08221    0.00394    0.03945
 60 Cu    0.05648   -0.22003    0.05812
 61 Cu   -0.04570   -0.00715    0.14465
 62 Cu    0.00403    0.00073    0.03945
 63 Cu    0.00509   -0.00272    0.02530
 64 Cu   -0.00206    0.00614    0.00372
 65 Cu   -0.00849    0.00098    0.00859
 66 Cu   -0.00101    0.00359   -0.00344
 67 Cu    0.00296    0.00203   -0.00216
 68 Cu   -0.02986    0.00247   -0.22189
 69 Cu    0.00617    0.01395   -0.02535
 70 Cu    0.01512   -0.02940    0.06281
 71 Cu   -0.42709   -0.00301    0.34844
 72 Cl   -0.20074   -0.01317    0.12470
 73 Cl   -0.27275   -0.00343   -0.08780
 74 Cl    0.28607   -0.04071   -0.34549
 75 Cl   -0.20160    0.04300    0.15484
 76 Cl    0.13378    0.00876    0.10158
 77 Cl   -0.23046    0.00660   -0.32754
 78 Cl    0.29650    0.01980   -0.08943
 79 Cl   -0.22240    0.00618   -0.00904
 80 Cl    0.32113    0.05936    0.11261
 81 Cl   -0.18386   -0.04896    0.08424

System changes: positions 

Initializing position-dependent things.

Density initialized from wave functions
      .------------------.  
     /|                  |  
    / |                  |  
   /  |                  |  
  /   |                  |  
 *    |                  |  
 |    |                  |  
 |    |                  |  
 |    |                  |  
 |    |                  |  
 |    |                  |  
 |    |    Cl      Cl    |  
 |    |                  |  
 |    |        Cu        |  
 | Cl |CCCl     Cl CuCu  |  
 |    |                  |  
 |  CuCu   CCu   CuCu    |  
 |    |  Cu    Cu  CuCu  |  
 |    |                  |  
 |    CuCu  Cu     Cu    |  
 |  Cu|CuCCu   CuCu  Cu  |  
 |    |                  |  
 |Cu  CuCu  Cu     Cu    |  
 |  Cu|  CuCu  CuCu  Cu  |  
 |    |                  |  
 |    | Cu    Cu         |  
 |  CuCu CuCCu CuCuCuCu  |  
 |    |                  |  
 |Cu  | Cu    Cu         |  
 |  CuCu CCuCu CuCuCuCu  |  
 |    |Cu    Cu    Cu    |  
 |    |                  |  
 |CuCuCuCulCCuCu CuCu    |  
 |    |                  |  
 |    |                  |  
 |    |Cl     Cl    Cl   |  
 |    |                  |  
 |    |                  |  
 |    |                  |  
 |    |                  |  
 |    |                  |  
 |    |                  |  
 |    .------------------.  
 |   /                  /   
 |  /                  /    
 | /                  /     
 |/                  /      
 *------------------*       

Positions:
   0 Cu     2.917897   -0.009065    9.875549    ( 0.0000,  0.0000,  0.0000)
   1 Cu     1.597048    1.841237   11.342742    ( 0.0000,  0.0000,  0.0000)
   2 Cu     4.199659    1.849647   11.332271    ( 0.0000,  0.0000,  0.0000)
   3 Cu     0.229421   -0.000734   10.070019    ( 0.0000,  0.0000,  0.0000)
   4 Cu     0.272260    0.002135   12.600096    ( 0.0000,  0.0000,  0.0000)
   5 Cu     4.205681    1.853371   13.934814    ( 0.0000,  0.0000,  0.0000)
   6 Cu     1.585402    1.846015   13.942715    ( 0.0000,  0.0000,  0.0000)
   7 Cu     2.900925    0.002846   12.579402    ( 0.0000,  0.0000,  0.0000)
   8 Cu     2.896250    0.000844   15.222858    ( 0.0000,  0.0000,  0.0000)
   9 Cu     1.586469    1.850931   16.553804    ( 0.0000,  0.0000,  0.0000)
  10 Cu     4.203086    1.852841   16.551371    ( 0.0000,  0.0000,  0.0000)
  11 Cu     0.275561    0.000123   15.214770    ( 0.0000,  0.0000,  0.0000)
  12 Cu     0.279186   -0.000652   17.836584    ( 0.0000,  0.0000,  0.0000)
  13 Cu     4.204517    1.851909   19.183579    ( 0.0000,  0.0000,  0.0000)
  14 Cu     1.585232    1.851819   19.177047    ( 0.0000,  0.0000,  0.0000)
  15 Cu     2.894829    0.002378   17.844128    ( 0.0000,  0.0000,  0.0000)
  16 Cu     2.892409    0.003866   20.455736    ( 0.0000,  0.0000,  0.0000)
  17 Cu     1.578935    1.853841   21.817548    ( 0.0000,  0.0000,  0.0000)
  18 Cu     4.205390    1.853104   21.819513    ( 0.0000,  0.0000,  0.0000)
  19 Cu     0.279488    0.002830   20.445168    ( 0.0000,  0.0000,  0.0000)
  20 Cu     0.275540   -0.007730   23.037827    ( 0.0000,  0.0000,  0.0000)
  21 Cu     4.224545    1.846113   24.397303    ( 0.0000,  0.0000,  0.0000)
  22 Cu     1.586332    1.846065   24.399894    ( 0.0000,  0.0000,  0.0000)
  23 Cu     2.902782    0.001872   23.050400    ( 0.0000,  0.0000,  0.0000)
  24 Cu     2.909037    3.706523    9.988937    ( 0.0000,  0.0000,  0.0000)
  25 Cu     1.598247    5.557262   11.354037    ( 0.0000,  0.0000,  0.0000)
  26 Cu     4.200367    5.548139   11.342089    ( 0.0000,  0.0000,  0.0000)
  27 Cu     0.298431    3.702547   10.009715    ( 0.0000,  0.0000,  0.0000)
  28 Cu     0.275632    3.697874   12.597784    ( 0.0000,  0.0000,  0.0000)
  29 Cu     4.205664    5.549252   13.935568    ( 0.0000,  0.0000,  0.0000)
  30 Cu     1.584882    5.557028   13.942800    ( 0.0000,  0.0000,  0.0000)
  31 Cu     2.893076    3.698249   12.579157    ( 0.0000,  0.0000,  0.0000)
  32 Cu     2.893323    3.700247   15.208921    ( 0.0000,  0.0000,  0.0000)
  33 Cu     1.587979    5.551243   16.552193    ( 0.0000,  0.0000,  0.0000)
  34 Cu     4.202944    5.549512   16.547360    ( 0.0000,  0.0000,  0.0000)
  35 Cu     0.278122    3.701209   15.225187    ( 0.0000,  0.0000,  0.0000)
  36 Cu     0.278109    3.702301   17.837547    ( 0.0000,  0.0000,  0.0000)
  37 Cu     4.201565    5.551093   19.168159    ( 0.0000,  0.0000,  0.0000)
  38 Cu     1.586018    5.551204   19.176209    ( 0.0000,  0.0000,  0.0000)
  39 Cu     2.894675    3.698982   17.840221    ( 0.0000,  0.0000,  0.0000)
  40 Cu     2.892259    3.698795   20.456774    ( 0.0000,  0.0000,  0.0000)
  41 Cu     1.587285    5.549411   21.783473    ( 0.0000,  0.0000,  0.0000)
  42 Cu     4.197796    5.549093   21.810507    ( 0.0000,  0.0000,  0.0000)
  43 Cu     0.279624    3.699665   20.446376    ( 0.0000,  0.0000,  0.0000)
  44 Cu     0.274234    3.706929   23.048631    ( 0.0000,  0.0000,  0.0000)
  45 Cu     4.180127    5.554448   24.513687    ( 0.0000,  0.0000,  0.0000)
  46 Cu     1.529273    5.558302   24.308685    ( 0.0000,  0.0000,  0.0000)
  47 Cu     2.903780    3.697227   23.059545    ( 0.0000,  0.0000,  0.0000)
  48 Cu     6.825670    1.839166   11.342951    ( 0.0000,  0.0000,  0.0000)
  49 Cu     5.568106   -0.004219   10.083734    ( 0.0000,  0.0000,  0.0000)
  50 Cu     5.513151    0.001202   12.608018    ( 0.0000,  0.0000,  0.0000)
  51 Cu     6.818380    1.854109   13.944948    ( 0.0000,  0.0000,  0.0000)
  52 Cu     6.819721    1.849965   16.553778    ( 0.0000,  0.0000,  0.0000)
  53 Cu     5.511951    0.001222   15.215570    ( 0.0000,  0.0000,  0.0000)
  54 Cu     5.509899    0.000766   17.839366    ( 0.0000,  0.0000,  0.0000)
  55 Cu     6.819818    1.851126   19.165056    ( 0.0000,  0.0000,  0.0000)
  56 Cu     6.824312    1.852369   21.793846    ( 0.0000,  0.0000,  0.0000)
  57 Cu     5.512585   -0.004051   20.449048    ( 0.0000,  0.0000,  0.0000)
  58 Cu     5.502981   -0.008064   23.037433    ( 0.0000,  0.0000,  0.0000)
  59 Cu     6.835864    1.845871   24.385841    ( 0.0000,  0.0000,  0.0000)
  60 Cu     6.824677    5.556614   11.354120    ( 0.0000,  0.0000,  0.0000)
  61 Cu     5.544645    3.707170    9.998940    ( 0.0000,  0.0000,  0.0000)
  62 Cu     5.518428    3.696232   12.571061    ( 0.0000,  0.0000,  0.0000)
  63 Cu     6.818567    5.548199   13.945144    ( 0.0000,  0.0000,  0.0000)
  64 Cu     6.818583    5.552664   16.554271    ( 0.0000,  0.0000,  0.0000)
  65 Cu     5.512440    3.700727   15.214137    ( 0.0000,  0.0000,  0.0000)
  66 Cu     5.511270    3.700935   17.837925    ( 0.0000,  0.0000,  0.0000)
  67 Cu     6.821956    5.552179   19.176713    ( 0.0000,  0.0000,  0.0000)
  68 Cu     6.824776    5.548455   21.791317    ( 0.0000,  0.0000,  0.0000)
  69 Cu     5.512339    3.706134   20.449071    ( 0.0000,  0.0000,  0.0000)
  70 Cu     5.503837    3.706528   23.047645    ( 0.0000,  0.0000,  0.0000)
  71 Cu     6.868380    5.554257   24.322051    ( 0.0000,  0.0000,  0.0000)
  72 Cl     2.938170    1.786754   26.378305    ( 0.0000,  0.0000,  0.0000)
  73 Cl     4.270933    3.651165    8.014254    ( 0.0000,  0.0000,  0.0000)
  74 Cl     5.826690    5.580008   26.266763    ( 0.0000,  0.0000,  0.0000)
  75 Cl     1.266316   -0.130265    8.135268    ( 0.0000,  0.0000,  0.0000)
  76 Cl     4.603820   -0.033480    8.129045    ( 0.0000,  0.0000,  0.0000)
  77 Cl     2.492557    5.476106   26.267152    ( 0.0000,  0.0000,  0.0000)
  78 Cl     6.896579    3.767913    8.025597    ( 0.0000,  0.0000,  0.0000)
  79 Cl     0.328659    1.791142   26.383108    ( 0.0000,  0.0000,  0.0000)
  80 Cl     5.554297    1.818911   26.369143    ( 0.0000,  0.0000,  0.0000)
  81 Cl     1.670389    3.618017    8.011535    ( 0.0000,  0.0000,  0.0000)

Unit cell:
           periodic     x           y           z      points  spacing
  1. axis:    yes    7.851007    0.000000    0.000000    45     0.1745
  2. axis:    yes    0.000000    7.402000    0.000000    42     0.1762
  3. axis:    yes    0.000000    0.000000   34.393512   196     0.1755

  Lengths:   7.851007   7.402000  34.393512
  Angles:   90.000000  90.000000  90.000000

Effective grid spacing dv^(1/3) = 0.1754

     iter     time        total  log10-change:
                         energy  eigst   dens
iter:   1 19:10:22 -5818.874343  -2.51
iter:   2 19:11:44 -5820.602051  -2.79  -2.43
iter:   3 19:12:58 -5818.304842  -3.27  -2.13
iter:   4 19:14:12 -5818.268366  -4.29  -2.78
iter:   5 19:15:34 -5818.241626c -4.28  -2.85
iter:   6 19:16:47 -5818.251113c -3.86  -2.96
iter:   7 19:18:20 -5818.225285c -5.08  -2.98
iter:   8 19:19:41 -5818.211513c -4.58  -3.10
iter:   9 19:21:02 -5818.207590c -5.62  -3.30
iter:  10 19:22:19 -5818.204048c -5.62  -3.35
iter:  11 19:23:34 -5818.201973c -5.29  -3.51
iter:  12 19:24:57 -5818.202830c -6.07  -3.63
iter:  13 19:26:22 -5818.201966c -5.99  -3.60
iter:  14 19:27:54 -5818.203756c -5.96  -3.78
iter:  15 19:29:08 -5818.202635c -6.46  -3.99
iter:  16 19:30:23 -5818.202807c -6.67  -3.86
iter:  17 19:31:46 -5818.202120c -6.70  -4.12c
iter:  18 19:33:01 -5818.202436c -7.39  -4.35c
iter:  19 19:34:40 -5818.202332c -7.68c -4.37c

Converged after 19 iterations.

Dipole moment: (-82.118066, 12.810556, -0.005069) |e|*Ang

Energy contributions relative to reference atoms: (reference = -3367094.026518)

Kinetic:       +591.208682
Potential:     -642.798535
External:        +0.000000
XC:            -5765.431415
Entropy (-ST):   -0.788152
Local:           -0.786987
--------------------------
Free energy:   -5818.596407
Extrapolated:  -5818.202332

Showing only first 2 kpts
 Kpt  Band  Eigenvalues  Occupancy
  0   429      0.66968    0.86717
  0   430      0.77827    0.41069
  0   431      0.82303    0.28351
  0   432      0.88704    0.16022

  1   429      0.35001    1.89857
  1   430      0.39775    1.84142
  1   431      0.42612    1.79473
  1   432      0.66740    0.87834


Fermi level: 0.64295

No gap

Forces in eV/Ang:
  0 Cu   -0.03323   -0.00685   -0.23477
  1 Cu    0.03213    0.00456   -0.05488
  2 Cu   -0.00954   -0.02005   -0.02924
  3 Cu    0.16955    0.00235   -0.06333
  4 Cu    0.00214   -0.00268    0.08392
  5 Cu   -0.00806   -0.00596   -0.00025
  6 Cu   -0.00049    0.00641   -0.00549
  7 Cu   -0.00898   -0.00334   -0.06323
  8 Cu    0.00142    0.00102   -0.00327
  9 Cu    0.00095   -0.00221   -0.00070
 10 Cu   -0.00031   -0.00187    0.00004
 11 Cu   -0.00283   -0.00091    0.03151
 12 Cu    0.00139   -0.00357   -0.00550
 13 Cu   -0.00271    0.00057   -0.01141
 14 Cu    0.00606   -0.00076   -0.01081
 15 Cu    0.00198   -0.00186   -0.00367
 16 Cu    0.01010   -0.00474    0.00028
 17 Cu    0.04310   -0.00364   -0.04661
 18 Cu   -0.00440   -0.00378   -0.06717
 19 Cu   -0.01011    0.02650   -0.02467
 20 Cu    0.00799    0.06798   -0.01930
 21 Cu   -0.03384    0.00297    0.07949
 22 Cu    0.06095    0.00077    0.03309
 23 Cu    0.00919   -0.02873    0.03681
 24 Cu    0.05158   -0.00691   -0.01371
 25 Cu    0.02936   -0.00104   -0.07083
 26 Cu   -0.01300    0.01958   -0.03569
 27 Cu    0.04621   -0.00702   -0.05955
 28 Cu    0.03669    0.00168   -0.02825
 29 Cu   -0.00861    0.00477    0.00127
 30 Cu    0.00176   -0.00696   -0.00687
 31 Cu    0.00665    0.00300    0.01297
 32 Cu    0.00310   -0.00054    0.01267
 33 Cu    0.00284    0.00227    0.00291
 34 Cu   -0.00133    0.00232    0.00196
 35 Cu    0.00321    0.00141   -0.01840
 36 Cu    0.00068    0.00361    0.00031
 37 Cu   -0.00137   -0.00045    0.00503
 38 Cu   -0.00060    0.00064   -0.03379
 39 Cu    0.00098    0.00194   -0.00127
 40 Cu    0.00966    0.00345   -0.00029
 41 Cu   -0.02680    0.00520   -0.04042
 42 Cu    0.01267    0.00174    0.07096
 43 Cu   -0.01130   -0.02824   -0.02251
 44 Cu    0.01304   -0.06987   -0.02680
 45 Cu    0.03761   -0.00830    0.25882
 46 Cu    0.10859   -0.00371   -0.00696
 47 Cu    0.00476    0.03075    0.02909
 48 Cu    0.01211    0.07552    0.03312
 49 Cu   -0.08487    0.00371    0.03580
 50 Cu    0.02331   -0.00391    0.04759
 51 Cu    0.01014    0.02253    0.02362
 52 Cu   -0.00045   -0.00221   -0.00319
 53 Cu    0.00138   -0.00040    0.02965
 54 Cu   -0.00275   -0.00235   -0.00439
 55 Cu   -0.00223   -0.00130    0.02585
 56 Cu   -0.04148   -0.00364    0.02640
 57 Cu    0.00027    0.00979    0.00504
 58 Cu   -0.00585   -0.01031    0.07167
 59 Cu    0.00068    0.00416    0.05819
 60 Cu    0.01830   -0.06842    0.01615
 61 Cu   -0.03539   -0.00731   -0.08485
 62 Cu   -0.03484    0.00375    0.07461
 63 Cu    0.00849   -0.02286    0.02337
 64 Cu   -0.00121    0.00255    0.00381
 65 Cu   -0.00630    0.00064    0.00997
 66 Cu   -0.00106    0.00276   -0.00192
 67 Cu    0.00263    0.00144   -0.03491
 68 Cu    0.01333    0.00272   -0.08106
 69 Cu    0.00190   -0.01137    0.00474
 70 Cu   -0.00556    0.00605    0.05848
 71 Cu   -0.19159   -0.00376    0.10858
 72 Cl    0.02184   -0.00921   -0.01147
 73 Cl    0.00475    0.00596    0.01961
 74 Cl    0.17293   -0.03331   -0.19118
 75 Cl   -0.14802    0.03729    0.12061
 76 Cl    0.06932    0.00607    0.01810
 77 Cl   -0.09258   -0.00054   -0.07583
 78 Cl   -0.02104    0.01715   -0.02416
 79 Cl   -0.10746    0.00483    0.01628
 80 Cl    0.00390    0.05351    0.01098
 81 Cl   -0.12783   -0.05080    0.00938

System changes: positions 

Initializing position-dependent things.

Density initialized from wave functions
      .------------------.  
     /|                  |  
    / |                  |  
   /  |                  |  
  /   |                  |  
 *    |                  |  
 |    |                  |  
 |    |                  |  
 |    |                  |  
 |    |                  |  
 |    |                  |  
 |    |    Cl      Cl    |  
 |    |                  |  
 |    |        Cu        |  
 | Cl | CCl  Cu Cl CuCu  |  
 |    |                  |  
 |  CuCu   CCu   CuCu    |  
 |    |  Cu    Cu  CuCu  |  
 |    |                  |  
 |Cu  Cu    Cu     Cu    |  
 |  Cu|CuCuCu  CuCu  Cu  |  
 |    |                  |  
 |Cu  CuCu  Cu     Cu    |  
 |  Cu|CuCuCu  CuCu  Cu  |  
 |    |                  |  
 |    | Cu    Cu         |  
 |  CuCu CuCCu CuCuCuCu  |  
 |    |                  |  
 |    | Cu    Cu         |  
 |  CuCu CuCCu CuCuCuCu  |  
 |    |      Cu    Cu    |  
 |    |                  |  
 |CuCuCuCulCCuCu CuCu    |  
 |    |                  |  
 |    |                  |  
 |Cu  |Cl     Cl    Cl   |  
 |    |                  |  
 |    |                  |  
 |    |                  |  
 |    |                  |  
 |    |                  |  
 |    |                  |  
 |    .------------------.  
 |   /                  /   
 |  /                  /    
 | /                  /     
 |/                  /      
 *------------------*       

Positions:
   0 Cu     2.916182   -0.010154    9.821438    ( 0.0000,  0.0000,  0.0000)
   1 Cu     1.601720    1.842519   11.337208    ( 0.0000,  0.0000,  0.0000)
   2 Cu     4.197720    1.846354   11.328791    ( 0.0000,  0.0000,  0.0000)
   3 Cu     0.244407    0.001733   10.077807    ( 0.0000,  0.0000,  0.0000)
   4 Cu     0.272799    0.001517   12.614787    ( 0.0000,  0.0000,  0.0000)
   5 Cu     4.204726    1.851083   13.935788    ( 0.0000,  0.0000,  0.0000)
   6 Cu     1.585169    1.845647   13.944043    ( 0.0000,  0.0000,  0.0000)
   7 Cu     2.901161    0.002165   12.565221    ( 0.0000,  0.0000,  0.0000)
   8 Cu     2.896587    0.001139   15.221885    ( 0.0000,  0.0000,  0.0000)
   9 Cu     1.586568    1.850505   16.554097    ( 0.0000,  0.0000,  0.0000)
  10 Cu     4.203061    1.852612   16.551688    ( 0.0000,  0.0000,  0.0000)
  11 Cu     0.274903   -0.000154   15.217974    ( 0.0000,  0.0000,  0.0000)
  12 Cu     0.279505   -0.001490   17.834677    ( 0.0000,  0.0000,  0.0000)
  13 Cu     4.203810    1.852139   19.182320    ( 0.0000,  0.0000,  0.0000)
  14 Cu     1.586525    1.851637   19.175092    ( 0.0000,  0.0000,  0.0000)
  15 Cu     2.895184    0.002120   17.843260    ( 0.0000,  0.0000,  0.0000)
  16 Cu     2.893837    0.001776   20.454603    ( 0.0000,  0.0000,  0.0000)
  17 Cu     1.584263    1.852986   21.810191    ( 0.0000,  0.0000,  0.0000)
  18 Cu     4.204706    1.852166   21.808404    ( 0.0000,  0.0000,  0.0000)
  19 Cu     0.278126    0.006266   20.439057    ( 0.0000,  0.0000,  0.0000)
  20 Cu     0.273567    0.009189   23.029868    ( 0.0000,  0.0000,  0.0000)
  21 Cu     4.218263    1.847210   24.398096    ( 0.0000,  0.0000,  0.0000)
  22 Cu     1.597508    1.846337   24.402780    ( 0.0000,  0.0000,  0.0000)
  23 Cu     2.905738   -0.002593   23.056053    ( 0.0000,  0.0000,  0.0000)
  24 Cu     2.919060    3.704808    9.985158    ( 0.0000,  0.0000,  0.0000)
  25 Cu     1.602405    5.556544   11.345192    ( 0.0000,  0.0000,  0.0000)
  26 Cu     4.197779    5.551366   11.337016    ( 0.0000,  0.0000,  0.0000)
  27 Cu     0.310894    3.700903    9.991083    ( 0.0000,  0.0000,  0.0000)
  28 Cu     0.280758    3.698289   12.585189    ( 0.0000,  0.0000,  0.0000)
  29 Cu     4.204526    5.551376   13.936874    ( 0.0000,  0.0000,  0.0000)
  30 Cu     1.585097    5.557373   13.944054    ( 0.0000,  0.0000,  0.0000)
  31 Cu     2.894136    3.698819   12.583130    ( 0.0000,  0.0000,  0.0000)
  32 Cu     2.894094    3.700042   15.210568    ( 0.0000,  0.0000,  0.0000)
  33 Cu     1.588584    5.551627   16.553218    ( 0.0000,  0.0000,  0.0000)
  34 Cu     4.202684    5.549846   16.547866    ( 0.0000,  0.0000,  0.0000)
  35 Cu     0.278653    3.701565   15.223225    ( 0.0000,  0.0000,  0.0000)
  36 Cu     0.278182    3.703124   17.837389    ( 0.0000,  0.0000,  0.0000)
  37 Cu     4.201215    5.550908   19.169043    ( 0.0000,  0.0000,  0.0000)
  38 Cu     1.585890    5.551380   19.172225    ( 0.0000,  0.0000,  0.0000)
  39 Cu     2.894812    3.699221   17.839673    ( 0.0000,  0.0000,  0.0000)
  40 Cu     2.893505    3.700697   20.455567    ( 0.0000,  0.0000,  0.0000)
  41 Cu     1.585226    5.550337   21.774563    ( 0.0000,  0.0000,  0.0000)
  42 Cu     4.198291    5.549531   21.826622    ( 0.0000,  0.0000,  0.0000)
  43 Cu     0.278039    3.695997   20.440904    ( 0.0000,  0.0000,  0.0000)
  44 Cu     0.273107    3.689657   23.038882    ( 0.0000,  0.0000,  0.0000)
  45 Cu     4.181976    5.552744   24.570710    ( 0.0000,  0.0000,  0.0000)
  46 Cu     1.537620    5.558476   24.292093    ( 0.0000,  0.0000,  0.0000)
  47 Cu     2.905932    3.702043   23.063047    ( 0.0000,  0.0000,  0.0000)
  48 Cu     6.830514    1.855482   11.354018    ( 0.0000,  0.0000,  0.0000)
  49 Cu     5.560792   -0.003201   10.099186    ( 0.0000,  0.0000,  0.0000)
  50 Cu     5.515256    0.000332   12.617759    ( 0.0000,  0.0000,  0.0000)
  51 Cu     6.819836    1.857216   13.950436    ( 0.0000,  0.0000,  0.0000)
  52 Cu     6.819696    1.849383   16.553350    ( 0.0000,  0.0000,  0.0000)
[...]
 79 Cl    0.00452   -0.00167   -0.00354
 80 Cl   -0.00262    0.00201   -0.01101
 81 Cl   -0.00226   -0.01346    0.02330

System changes: positions 

Initializing position-dependent things.

Density initialized from wave functions
      .------------------.  
     /|                  |  
    / |                  |  
   /  |                  |  
  /   |                  |  
 *    |                  |  
 |    |                  |  
 |    |                  |  
 |    |                  |  
 |    |                  |  
 |    |                  |  
 |    |             Cl   |  
 |    |   Cl             |  
 | Cl |        CCl       |  
 |    |  Cu        CuCu  |  
 |    |  Cl              |  
 |  CuCu   CCu   CuCu    |  
 |    |  Cu    Cu  CuCu  |  
 |    |                  |  
 |Cu  CuCu CCu   CuCu    |  
 |  Cu|  Cu    Cu    Cu  |  
 |    |                  |  
 |Cu  CuCu  Cu     Cu    |  
 |  Cu|  CuCu  CuCu  Cu  |  
 |    |                  |  
 |Cu  | Cu    Cu         |  
 |  CuCu CuCCu CuCuCuCu  |  
 |    |                  |  
 |Cu  | Cu    Cu         |  
 |  CuCu CuCCu CuCuCuCu  |  
 |    |                  |  
 |    |                  |  
 |CuCuCuCuCuCuCuCu Cu    |  
 |    |              Cl  |  
 |    |                  |  
 |Cu  |  Cu  ClCu        |  
 | Cl |                  |  
 |    |     Cl           |  
 |    |                  |  
 |    |                  |  
 |    |                  |  
 |    |                  |  
 |    .------------------.  
 |   /                  /   
 |  /                  /    
 | /                  /     
 |/                  /      
 *------------------*       

Positions:
   0 Cu     3.058955    0.183656    9.916642    ( 0.0000,  0.0000,  0.0000)
   1 Cu     1.607319    1.891970   11.362743    ( 0.0000,  0.0000,  0.0000)
   2 Cu     4.222487    1.891668   11.349315    ( 0.0000,  0.0000,  0.0000)
   3 Cu     0.345807    0.173215    9.920172    ( 0.0000,  0.0000,  0.0000)
   4 Cu     0.276498    0.013047   12.560120    ( 0.0000,  0.0000,  0.0000)
   5 Cu     4.208025    1.877776   13.937008    ( 0.0000,  0.0000,  0.0000)
   6 Cu     1.584043    1.870614   13.935683    ( 0.0000,  0.0000,  0.0000)
   7 Cu     2.895325    0.035095   12.569773    ( 0.0000,  0.0000,  0.0000)
   8 Cu     2.897698    0.018737   15.220528    ( 0.0000,  0.0000,  0.0000)
   9 Cu     1.589635    1.868336   16.544856    ( 0.0000,  0.0000,  0.0000)
  10 Cu     4.204896    1.868057   16.547766    ( 0.0000,  0.0000,  0.0000)
  11 Cu     0.278887    0.016140   15.203240    ( 0.0000,  0.0000,  0.0000)
  12 Cu     0.282966    0.016777   17.828648    ( 0.0000,  0.0000,  0.0000)
  13 Cu     4.208451    1.860537   19.164619    ( 0.0000,  0.0000,  0.0000)
  14 Cu     1.596230    1.856791   19.170639    ( 0.0000,  0.0000,  0.0000)
  15 Cu     2.896204    0.007876   17.849413    ( 0.0000,  0.0000,  0.0000)
  16 Cu     2.903122    0.002763   20.475716    ( 0.0000,  0.0000,  0.0000)
  17 Cu     1.609941    1.865376   21.825706    ( 0.0000,  0.0000,  0.0000)
  18 Cu     4.214518    1.855499   21.766405    ( 0.0000,  0.0000,  0.0000)
  19 Cu     0.283756    0.023375   20.446240    ( 0.0000,  0.0000,  0.0000)
  20 Cu     0.297339    0.025427   23.052629    ( 0.0000,  0.0000,  0.0000)
  21 Cu     4.217636    1.850155   24.312849    ( 0.0000,  0.0000,  0.0000)
  22 Cu     1.560167    1.942320   24.512283    ( 0.0000,  0.0000,  0.0000)
  23 Cu     2.910510    0.007186   23.088238    ( 0.0000,  0.0000,  0.0000)
  24 Cu     2.829108    3.666432   10.009346    ( 0.0000,  0.0000,  0.0000)
  25 Cu     1.597319    5.590081   11.244933    ( 0.0000,  0.0000,  0.0000)
  26 Cu     4.213192    5.586268   11.339704    ( 0.0000,  0.0000,  0.0000)
  27 Cu     0.240490    3.616110    9.925730    ( 0.0000,  0.0000,  0.0000)
  28 Cu     0.296064    3.755179   12.561074    ( 0.0000,  0.0000,  0.0000)
  29 Cu     4.206906    5.579064   13.921879    ( 0.0000,  0.0000,  0.0000)
  30 Cu     1.593073    5.587614   13.889673    ( 0.0000,  0.0000,  0.0000)
  31 Cu     2.896612    3.746406   12.587648    ( 0.0000,  0.0000,  0.0000)
  32 Cu     2.894881    3.724616   15.213640    ( 0.0000,  0.0000,  0.0000)
  33 Cu     1.586616    5.566252   16.529768    ( 0.0000,  0.0000,  0.0000)
  34 Cu     4.205303    5.569280   16.541555    ( 0.0000,  0.0000,  0.0000)
  35 Cu     0.281896    3.730068   15.202139    ( 0.0000,  0.0000,  0.0000)
  36 Cu     0.278831    3.711308   17.829200    ( 0.0000,  0.0000,  0.0000)
  37 Cu     4.209650    5.560251   19.173819    ( 0.0000,  0.0000,  0.0000)
  38 Cu     1.585652    5.558771   19.160605    ( 0.0000,  0.0000,  0.0000)
  39 Cu     2.898899    3.715288   17.844135    ( 0.0000,  0.0000,  0.0000)
  40 Cu     2.899933    3.717149   20.463492    ( 0.0000,  0.0000,  0.0000)
  41 Cu     1.587722    5.576406   21.773538    ( 0.0000,  0.0000,  0.0000)
  42 Cu     4.215465    5.554686   21.842645    ( 0.0000,  0.0000,  0.0000)
  43 Cu     0.289290    3.690286   20.446204    ( 0.0000,  0.0000,  0.0000)
  44 Cu     0.287903    3.681559   23.055559    ( 0.0000,  0.0000,  0.0000)
  45 Cu     4.218984    5.563723   24.602795    ( 0.0000,  0.0000,  0.0000)
  46 Cu     1.551660    5.574576   24.309090    ( 0.0000,  0.0000,  0.0000)
  47 Cu     2.901596    3.720507   23.064090    ( 0.0000,  0.0000,  0.0000)
  48 Cu     6.824622    1.885305   11.361204    ( 0.0000,  0.0000,  0.0000)
  49 Cu     5.613951    0.094234   10.020170    ( 0.0000,  0.0000,  0.0000)
  50 Cu     5.526464    0.017655   12.590561    ( 0.0000,  0.0000,  0.0000)
  51 Cu     6.830155    1.883449   13.935738    ( 0.0000,  0.0000,  0.0000)
  52 Cu     6.820483    1.868126   16.545577    ( 0.0000,  0.0000,  0.0000)
  53 Cu     5.515937    0.021416   15.214828    ( 0.0000,  0.0000,  0.0000)
  54 Cu     5.514717    0.013211   17.845410    ( 0.0000,  0.0000,  0.0000)
  55 Cu     6.822055    1.862957   19.173266    ( 0.0000,  0.0000,  0.0000)
  56 Cu     6.821269    1.846381   21.829409    ( 0.0000,  0.0000,  0.0000)
  57 Cu     5.523273   -0.001688   20.463322    ( 0.0000,  0.0000,  0.0000)
  58 Cu     5.532795   -0.013326   23.059119    ( 0.0000,  0.0000,  0.0000)
  59 Cu     6.879466    1.748988   24.520077    ( 0.0000,  0.0000,  0.0000)
  60 Cu     6.835798    5.581891   11.252402    ( 0.0000,  0.0000,  0.0000)
  61 Cu     5.386108    3.628178    9.915262    ( 0.0000,  0.0000,  0.0000)
  62 Cu     5.530133    3.734433   12.574439    ( 0.0000,  0.0000,  0.0000)
  63 Cu     6.824160    5.572090   13.893594    ( 0.0000,  0.0000,  0.0000)
  64 Cu     6.823133    5.572192   16.530303    ( 0.0000,  0.0000,  0.0000)
  65 Cu     5.513945    3.727944   15.221172    ( 0.0000,  0.0000,  0.0000)
  66 Cu     5.517043    3.718326   17.850312    ( 0.0000,  0.0000,  0.0000)
  67 Cu     6.831717    5.562480   19.160597    ( 0.0000,  0.0000,  0.0000)
  68 Cu     6.843569    5.533430   21.771691    ( 0.0000,  0.0000,  0.0000)
  69 Cu     5.519715    3.710382   20.479440    ( 0.0000,  0.0000,  0.0000)
  70 Cu     5.523006    3.701355   23.095253    ( 0.0000,  0.0000,  0.0000)
  71 Cu     6.889169    5.536708   24.305373    ( 0.0000,  0.0000,  0.0000)
  72 Cl     3.052308    0.406792   25.673193    ( 0.0000,  0.0000,  0.0000)
  73 Cl     3.930890    3.528274    8.078891    ( 0.0000,  0.0000,  0.0000)
  74 Cl     6.038559    6.593312   26.048633    ( 0.0000,  0.0000,  0.0000)
  75 Cl     1.811796   -1.443894    8.788114    ( 0.0000,  0.0000,  0.0000)
  76 Cl     4.526217    0.364034    8.095608    ( 0.0000,  0.0000,  0.0000)
  77 Cl     2.422380    4.535684   26.053144    ( 0.0000,  0.0000,  0.0000)
  78 Cl     6.645442    5.270798    8.783845    ( 0.0000,  0.0000,  0.0000)
  79 Cl     0.300616    1.874601   26.437928    ( 0.0000,  0.0000,  0.0000)
  80 Cl     5.392326    3.306374   25.658603    ( 0.0000,  0.0000,  0.0000)
  81 Cl     0.329808    1.906081    8.352140    ( 0.0000,  0.0000,  0.0000)

Unit cell:
           periodic     x           y           z      points  spacing
  1. axis:    yes    7.851007    0.000000    0.000000    45     0.1745
  2. axis:    yes    0.000000    7.402000    0.000000    42     0.1762
  3. axis:    yes    0.000000    0.000000   34.393512   196     0.1755

  Lengths:   7.851007   7.402000  34.393512
  Angles:   90.000000  90.000000  90.000000

Effective grid spacing dv^(1/3) = 0.1754

     iter     time        total  log10-change:
                         energy  eigst   dens
iter:   1 13:53:48 -5821.511342  -4.42
iter:   2 13:55:29 -5821.582137  -4.22  -3.23
iter:   3 13:56:45 -5821.493988c -4.69  -2.89
iter:   4 13:58:20 -5821.492873c -5.81  -3.99
iter:   5 13:59:42 -5821.492859c -6.10  -4.05c
iter:   6 14:00:55 -5821.492942c -6.69  -4.26c
iter:   7 14:02:25 -5821.492938c -7.19  -4.43c
iter:   8 14:03:39 -5821.492966c -7.37  -4.58c
iter:   9 14:04:54 -5821.492933c -7.65c -4.66c

Converged after 9 iterations.

Dipole moment: (-98.083612, -41.852390, -0.037902) |e|*Ang

Energy contributions relative to reference atoms: (reference = -3367094.026518)

Kinetic:       +610.028800
Potential:     -658.148267
External:        +0.000000
XC:            -5772.149252
Entropy (-ST):   -0.682229
Local:           -0.883099
--------------------------
Free energy:   -5821.834047
Extrapolated:  -5821.492933

Showing only first 2 kpts
 Kpt  Band  Eigenvalues  Occupancy
  0   429      0.37918    1.77779
  0   430      0.67006    0.60758
  0   431      0.78353    0.24607
  0   432      0.82051    0.17672

  1   429      0.20859    1.95561
  1   430      0.30215    1.89061
  1   431      0.37635    1.78332
  1   432      0.39256    1.74995


Fermi level: 0.58713

No gap

Forces in eV/Ang:
  0 Cu    0.00005   -0.01871   -0.00853
  1 Cu    0.00046   -0.00456   -0.01084
  2 Cu   -0.00065   -0.00155   -0.01096
  3 Cu   -0.00126   -0.00869   -0.00103
  4 Cu    0.00012   -0.00311   -0.00810
  5 Cu    0.00130   -0.00077    0.00147
  6 Cu    0.00145    0.00017    0.00428
  7 Cu    0.00296   -0.00299   -0.00490
  8 Cu    0.00211    0.00182   -0.00122
  9 Cu    0.00326   -0.00040   -0.00300
 10 Cu    0.00192    0.00142   -0.00601
 11 Cu    0.00107    0.00110    0.00223
 12 Cu   -0.00008    0.00046    0.00030
 13 Cu    0.00235   -0.00156    0.00044
 14 Cu    0.00178    0.00028    0.00014
 15 Cu    0.00282    0.00128   -0.00380
 16 Cu    0.00329    0.00342    0.00458
 17 Cu   -0.00027   -0.00087    0.00238
 18 Cu    0.00250    0.00342    0.00154
 19 Cu   -0.00198    0.00271   -0.00184
 20 Cu   -0.00306   -0.00317    0.00186
 21 Cu    0.00195    0.00419    0.00050
 22 Cu   -0.00309    0.00194   -0.00071
 23 Cu    0.00421   -0.00042    0.00884
 24 Cu   -0.00508    0.00447   -0.00379
 25 Cu    0.00165    0.00136    0.00027
 26 Cu   -0.00074    0.00002   -0.00496
 27 Cu    0.00057    0.00523   -0.00347
 28 Cu    0.00138   -0.00253   -0.00284
 29 Cu    0.00305   -0.00229    0.00253
 30 Cu    0.00210    0.00051    0.00105
 31 Cu    0.00276   -0.00116   -0.00546
 32 Cu    0.00444   -0.00104   -0.00248
 33 Cu    0.00481   -0.00027   -0.00265
 34 Cu    0.00176   -0.00024   -0.00176
 35 Cu    0.00051   -0.00011    0.00397
 36 Cu    0.00137    0.00044   -0.00275
 37 Cu    0.00054    0.00279   -0.00118
 38 Cu    0.00126    0.00412   -0.00182
 39 Cu    0.00122   -0.00056   -0.00315
 40 Cu    0.00112    0.00246   -0.00078
 41 Cu    0.00046    0.00346    0.00097
 42 Cu    0.00005    0.00536    0.00174
 43 Cu   -0.00141    0.00178    0.00150
 44 Cu    0.00234    0.00221    0.00567
 45 Cu    0.00017   -0.00220    0.00472
 46 Cu   -0.00066   -0.00033    0.00251
 47 Cu    0.00399    0.00329    0.00288
 48 Cu   -0.00212   -0.00181   -0.01120
 49 Cu   -0.00169   -0.00406   -0.01083
 50 Cu    0.00016    0.00050   -0.00387
 51 Cu    0.00177   -0.00107    0.00422
 52 Cu    0.00068   -0.00028   -0.00181
 53 Cu    0.00048    0.00231    0.00036
 54 Cu   -0.00077    0.00090   -0.00233
 55 Cu   -0.00137    0.00168   -0.00235
 56 Cu   -0.00440   -0.00159    0.00035
 57 Cu    0.00069   -0.00004    0.00076
 58 Cu    0.00007   -0.00109    0.00647
 59 Cu    0.00165    0.00327   -0.00115
 60 Cu    0.00038   -0.00299    0.00341
 61 Cu   -0.00333   -0.00448   -0.00299
 62 Cu    0.00089   -0.00234   -0.00389
 63 Cu    0.00020    0.00045    0.00150
 64 Cu   -0.00059    0.00165   -0.00042
 65 Cu   -0.00107   -0.00220   -0.00085
 66 Cu    0.00021    0.00150   -0.00335
 67 Cu    0.00040    0.00056   -0.00030
 68 Cu   -0.00521    0.00195    0.00295
 69 Cu    0.00258    0.00058    0.00168
 70 Cu   -0.00430    0.00269    0.00423
 71 Cu   -0.00625    0.00105    0.00573
 72 Cl   -0.00105    0.00002    0.00169
 73 Cl   -0.00062   -0.02529   -0.00050
 74 Cl    0.00220   -0.00118    0.00371
 75 Cl   -0.00635   -0.00809    0.00421
 76 Cl   -0.00240   -0.01519    0.00867
 77 Cl   -0.00300    0.00165    0.00300
 78 Cl   -0.00396   -0.00781    0.00770
 79 Cl   -0.00034   -0.00727   -0.00104
 80 Cl   -0.00499    0.00576    0.00247
 81 Cl   -0.00734   -0.00781    0.01459

Timing:                                      incl.     excl.
-------------------------------------------------------------------
Density initialized from wave functions:   335.119   335.116   0.4% |
 Symmetrize density:                         0.002     0.002   0.0% |
Forces:                                   1565.835  1565.835   2.0% ||
Hamiltonian:                               535.391     0.912   0.0% |
 Atomic:                                    25.226    13.354   0.0% |
  XC Correction:                            11.872    11.872   0.0% |
 Calculate atomic Hamiltonians:            144.026   144.026   0.2% |
 Communicate:                                6.827     6.827   0.0% |
 Initialize Hamiltonian:                     0.002     0.002   0.0% |
 Poisson:                                    0.296     0.296   0.0% |
 XC 3D grid:                               358.103    43.154   0.1% |
  VdW-DF integral:                         314.949    10.331   0.0% |
   Convolution:                             16.176    16.176   0.0% |
   FFT:                                      7.920     7.920   0.0% |
   gather:                                 151.294   151.294   0.2% |
   hmm1:                                     5.237     5.237   0.0% |
   hmm2:                                    12.047    12.047   0.0% |
   iFFT:                                     8.742     8.742   0.0% |
   potential:                               98.226     1.365   0.0% |
    collect:                                15.852    15.852   0.0% |
    p1:                                     40.371    40.371   0.1% |
    p2:                                     18.426    18.426   0.0% |
    sum:                                    22.212    22.212   0.0% |
   splines:                                  4.975     4.975   0.0% |
LCAO initialization:                       425.645     0.508   0.0% |
 LCAO eigensolver:                          15.971     0.005   0.0% |
  Blacs Orbital Layouts:                     1.299     0.002   0.0% |
   General diagonalize:                      1.270     1.270   0.0% |
   Redistribute coefs:                       0.016     0.016   0.0% |
   Send coefs to domains:                    0.010     0.010   0.0% |
  Calculate projections:                     0.020     0.020   0.0% |
  Distribute overlap matrix:                14.089     0.002   0.0% |
   Scalapack redistribute:                   0.038     0.038   0.0% |
   blocked summation:                       14.049    14.049   0.0% |
  Potential matrix:                          0.302     0.302   0.0% |
  SparseAtomicCorrection:                    0.039     0.039   0.0% |
  Sum over cells:                            0.217     0.217   0.0% |
 LCAO to grid:                             405.804   405.804   0.5% |
 Set positions (LCAO WFS):                   3.363     0.055   0.0% |
  Basic WFS set positions:                   0.003     0.003   0.0% |
  Basis functions set positions:             0.000     0.000   0.0% |
  P tci:                                     0.076     0.076   0.0% |
  ST tci:                                    0.497     0.497   0.0% |
  Scalapack redistribute:                    0.060     0.060   0.0% |
  blocked summation:                         2.466     2.466   0.0% |
  mktci:                                     0.205     0.205   0.0% |
PWDescriptor:                                0.856     0.856   0.0% |
Redistribute:                                0.178     0.178   0.0% |
SCF-cycle:                               75921.172  3041.774   3.8% |-|
 Davidson:                               57166.757 15318.188  19.3% |-------|
  Apply H:                                5098.159  4990.547   6.3% |--|
   HMM T:                                  107.612   107.612   0.1% |
  Subspace diag:                          9426.624     0.231   0.0% |
   calc_h_matrix:                         6648.969  1681.073   2.1% ||
    Apply H:                              4967.895  4858.497   6.1% |-|
     HMM T:                                109.398   109.398   0.1% |
   diagonalize:                            359.689   359.689   0.5% |
   rotate_psi:                            2417.735  2417.735   3.1% ||
  calc. matrices:                        20594.781 10854.074  13.7% |----|
   Apply H:                               9740.707  9533.233  12.0% |----|
    HMM T:                                 207.475   207.475   0.3% |
  diagonalize:                            2248.688  2248.688   2.8% ||
  rotate_psi:                             4480.318  4480.318   5.7% |-|
 Density:                                 6077.884     0.046   0.0% |
  Atomic density matrices:                  26.950    26.950   0.0% |
  Mix:                                    3131.693  3131.693   4.0% |-|
  Multipole moments:                         1.044     1.044   0.0% |
  Pseudo density:                         2918.151  2918.111   3.7% ||
   Symmetrize density:                       0.041     0.041   0.0% |
 Hamiltonian:                             9328.638    16.382   0.0% |
  Atomic:                                  432.976   216.945   0.3% |
   XC Correction:                          216.031   216.031   0.3% |
  Calculate atomic Hamiltonians:          2672.847  2672.847   3.4% ||
  Communicate:                             166.305   166.305   0.2% |
  Poisson:                                   5.749     5.749   0.0% |
  XC 3D grid:                             6034.379   844.060   1.1% |
   VdW-DF integral:                       5190.318   197.670   0.2% |
    Convolution:                           312.644   312.644   0.4% |
    FFT:                                   151.543   151.543   0.2% |
    gather:                               2302.108  2302.108   2.9% ||
    hmm1:                                   98.774    98.774   0.1% |
    hmm2:                                  228.120   228.120   0.3% |
    iFFT:                                  160.333   160.333   0.2% |
    potential:                            1739.115    23.552   0.0% |
     collect:                              272.668   272.668   0.3% |
     p1:                                   742.957   742.957   0.9% |
     p2:                                   324.710   324.710   0.4% |
     sum:                                  375.228   375.228   0.5% |
    splines:                                 0.011     0.011   0.0% |
 Orthonormalize:                           306.119     0.021   0.0% |
  calc_s_matrix:                            41.798    41.798   0.1% |
  inverse-cholesky:                         11.808    11.808   0.0% |
  projections:                             189.419   189.419   0.2% |
  rotate_psi_s:                             63.073    63.073   0.1% |
Set symmetry:                                0.001     0.001   0.0% |
Other:                                     453.040   453.040   0.6% |
-------------------------------------------------------------------
Total:                                             79237.237 100.0%

Memory usage: 1.57 GiB
Date: Sat Oct 15 14:05:24 2022
