
  ___ ___ ___ _ _ _  
 |   |   |_  | | | | 
 | | | | | . | | | | 
 |__ |  _|___|_____|  22.1.0
 |___|_|             

User:   thorkong@node421.cluster
Date:   Fri Mar 31 14:23:47 2023
Arch:   x86_64
Pid:    9067
Python: 3.10.5
gpaw:   /groups/kemi/thorkong/miniconda3/envs/gpaw22/lib/python3.10/site-packages/gpaw
_gpaw:  /groups/kemi/thorkong/miniconda3/envs/gpaw22/lib/python3.10/site-packages/
        _gpaw.cpython-310-x86_64-linux-gnu.so
ase:    /groups/kemi/thorkong/miniconda3/envs/gpaw22/lib/python3.10/site-packages/ase (version 3.22.1)
numpy:  /groups/kemi/thorkong/miniconda3/envs/gpaw22/lib/python3.10/site-packages/numpy (version 1.23.0)
scipy:  /groups/kemi/thorkong/miniconda3/envs/gpaw22/lib/python3.10/site-packages/scipy (version 1.8.1)
libxc:  5.2.3
units:  Angstrom and eV
cores: 32
OpenMP: True
OMP_NUM_THREADS: 1

Input parameters:
  basis: dzp
  kpts: [4 4 1]
  mode: {ecut: 600.0,
         name: pw}
  xc: BEEF-vdW

System changes: positions, numbers, cell, pbc, initial_charges, initial_magmoms 

Initialize ...

Cu-setup:
  name: Copper
  id: f1c4d45d90492f1bbfdcb091e8418fdf
  Z: 29.0
  valence: 11
  core: 18
  charge: 0.0
  file: /groups/kemi/thorkong/miniconda3/envs/gpaw22/share/gpaw/Cu.PBE.gz
  compensation charges: gauss, rc=0.33, lmax=2
  cutoffs: 2.06(filt), 2.43(core),
  valence states:
                energy  radius
    4s(1.00)    -4.609   1.164
    4p(0.00)    -0.698   1.164
    3d(10.00)    -5.039   1.058
    *s          22.603   1.164
    *p          26.513   1.164
    *d          22.172   1.058

  LCAO basis set for Cu:
    Name: dzp
    File: /groups/kemi/thorkong/miniconda3/envs/gpaw22/share/gpaw/Cu.dzp.basis.gz
    Number of radial functions: 5
    Number of spherical harmonics: 15
      l=0, rc=8.9688 Bohr: 4s-sz confined orbital
      l=2, rc=5.1719 Bohr: 3d-sz confined orbital
      l=0, rc=5.3281 Bohr: 4s-dz split-valence wave
      l=2, rc=3.1406 Bohr: 3d-dz split-valence wave
      l=1, rc=8.9688 Bohr: p-type Gaussian polarization

Cl-setup:
  name: Chlorine
  id: 726897f06f34e53cf8e33b5885a02604
  Z: 17.0
  valence: 7
  core: 10
  charge: 0.0
  file: /groups/kemi/thorkong/miniconda3/envs/gpaw22/share/gpaw/Cl.PBE.gz
  compensation charges: gauss, rc=0.25, lmax=2
  cutoffs: 1.40(filt), 1.49(core),
  valence states:
                energy  radius
    3s(2.00)   -20.689   0.794
    3p(5.00)    -8.594   0.794
    *s           6.523   0.794
    *p          18.617   0.794
    *d           0.000   0.794

  LCAO basis set for Cl:
    Name: dzp
    File: /groups/kemi/thorkong/miniconda3/envs/gpaw22/share/gpaw/Cl.dzp.basis.gz
    Number of radial functions: 5
    Number of spherical harmonics: 13
      l=0, rc=5.1719 Bohr: 3s-sz confined orbital
      l=1, rc=6.2656 Bohr: 3p-sz confined orbital
      l=0, rc=2.8281 Bohr: 3s-dz split-valence wave
      l=1, rc=3.5156 Bohr: 3p-dz split-valence wave
      l=2, rc=6.2656 Bohr: d-type Gaussian polarization

Reference energy: -2606927.690960

Spin-paired calculation

Convergence criteria:
 Maximum [total energy] change in last 3 cyles: 0.0005 eV / electron
 Maximum integral of absolute [dens]ity change: 0.0001 electrons / valence electron
 Maximum integral of absolute [eigenst]ate change: 4e-08 eV^2 / valence electron
 Maximum number of scf [iter]ations: 333
 (Square brackets indicate name in SCF output, whereas a 'c' in
 the SCF output indicates the quantity has converged.)

Symmetries present (total): 1

  ( 1  0  0)
  ( 0  1  0)
  ( 0  0  1)

16 k-points: 4 x 4 x 1 Monkhorst-Pack grid
8 k-points in the irreducible part of the Brillouin zone
       k-points in crystal coordinates                weights
   0:     0.12500000   -0.37500000    0.00000000          2/16
   1:     0.12500000   -0.12500000    0.00000000          2/16
   2:     0.12500000    0.12500000    0.00000000          2/16
   3:     0.12500000    0.37500000    0.00000000          2/16
   4:     0.37500000   -0.37500000    0.00000000          2/16
   5:     0.37500000   -0.12500000    0.00000000          2/16
   6:     0.37500000    0.12500000    0.00000000          2/16
   7:     0.37500000    0.37500000    0.00000000          2/16

Wave functions: Plane wave expansion
  Cutoff energy: 600.000 eV
  Number of coefficients (min, max): 63070, 63184
  Pulay-stress correction: 0.000000 eV/Ang^3 (de/decut=0.000000)
  Using FFTW library
  ScaLapack parameters: grid=2x2, blocksize=64
  Wavefunction extrapolation:
    Improved wavefunction reuse through dual PAW basis 

Occupation numbers: Fermi-Dirac: width=0.1000 eV
 

Eigensolver
   Davidson(niter=2) 

Densities:
  Coarse grid: 45*48*175 grid
  Fine grid: 90*96*350 grid
  Total Charge: 0.000000 

Density mixing:
  Method: separate
  Backend: pulay
  Linear mixing parameter: 0.05
  Mixing with 5 old densities
  Damping of long wave oscillations: 50 

Hamiltonian:
  XC and Coulomb potentials evaluated on a 90*96*350 grid
  Using the BEEF-vdW Exchange-Correlation functional
  External potential:
    NoExternalPotential
 

XC parameters: BEEF-vdW with 2 nearest neighbor stencil

Memory estimate:
  Process memory now: 252.33 MiB
  Calculator: 920.59 MiB
    Density: 47.05 MiB
      Arrays: 18.85 MiB
      Localized functions: 20.94 MiB
      Mixer: 7.25 MiB
    Hamiltonian: 12.84 MiB
      Arrays: 12.33 MiB
      XC: 0.00 MiB
      Poisson: 0.00 MiB
      vbar: 0.51 MiB
    Wavefunctions: 860.70 MiB
      Arrays psit_nG: 404.93 MiB
      Eigensolver: 436.68 MiB
      Projections: 1.85 MiB
      Projectors: 2.41 MiB
      PW-descriptor: 14.84 MiB

Total number of cores used: 32
Parallelization over k-points: 8
Domain decomposition: 1 x 1 x 4
                      2 x 2 x 8 (xc only)

Number of atoms: 68
Number of atomic orbitals: 992
Number of bands in calculation: 420
Number of valence electrons: 692
Bands to converge: occupied

... initialized

Initializing position-dependent things.

Density initialized from atomic densities
Creating initial wave functions:
  420 bands from LCAO basis set

                                      
                                      
                                      
                                      
                  Cl        Cl        
                                      
             Cl    Cl     Cl          
           Cl    CCl   Cu             
                                      
         Cu    Cu    CCu   Cu         
             Cu    Cu     Cu          
       Cu     Cu    Cu                
           Cu    CCu   CCu            
         Cu    Cu    CCu   Cu         
                                      
       Cu    CCu   CCu    Cu          
           Cu    CCu   CCu            
                                      
         Cu    Cu    CCu   Cu         
             Cu    Cu     Cu          
       Cu     Cu    Cu                
           Cu Cl  Cu    Cu            
                                      
         Cl    Cl     Cl              
        Cl    Cl                      
                                      
                                      
                                      
                                      

Positions:
   0 Cu     1.882980    1.834058   10.017163    ( 0.0000,  0.0000,  0.0000)
   1 Cu     0.574479    0.525542   11.830785    ( 0.0000,  0.0000,  0.0000)
   2 Cu     3.191482    0.525542   11.830784    ( 0.0000,  0.0000,  0.0000)
   3 Cu     1.882983    1.834038   13.694912    ( 0.0000,  0.0000,  0.0000)
   4 Cu     0.574483    0.525535   15.557280    ( 0.0000,  0.0000,  0.0000)
   5 Cu     3.191485    0.525535   15.557280    ( 0.0000,  0.0000,  0.0000)
   6 Cu     1.882984    1.834040   17.421564    ( 0.0000,  0.0000,  0.0000)
   7 Cu     0.574482    0.525554   19.234911    ( 0.0000,  0.0000,  0.0000)
   8 Cu     3.191484    0.525554   19.234911    ( 0.0000,  0.0000,  0.0000)
   9 Cu     0.574480    3.142544   11.830784    ( 0.0000,  0.0000,  0.0000)
  10 Cu     0.574483    3.142538   15.557280    ( 0.0000,  0.0000,  0.0000)
  11 Cu     0.574482    3.142556   19.234911    ( 0.0000,  0.0000,  0.0000)
  12 Cu     7.116984    1.834058   10.017163    ( 0.0000,  0.0000,  0.0000)
  13 Cu     5.808484    0.525542   11.830784    ( 0.0000,  0.0000,  0.0000)
  14 Cu     7.116987    1.834038   13.694912    ( 0.0000,  0.0000,  0.0000)
  15 Cu     5.808487    0.525535   15.557280    ( 0.0000,  0.0000,  0.0000)
  16 Cu     7.116989    1.834040   17.421564    ( 0.0000,  0.0000,  0.0000)
  17 Cu     5.808486    0.525554   19.234911    ( 0.0000,  0.0000,  0.0000)
  18 Cu     4.499982    1.834058   10.017163    ( 0.0000,  0.0000,  0.0000)
  19 Cu     4.499982    4.451060   10.017163    ( 0.0000,  0.0000,  0.0000)
  20 Cu     3.191482    3.142544   11.830784    ( 0.0000,  0.0000,  0.0000)
  21 Cu     5.808484    3.142544   11.830785    ( 0.0000,  0.0000,  0.0000)
  22 Cu     4.499985    1.834038   13.694912    ( 0.0000,  0.0000,  0.0000)
  23 Cu     4.499985    4.451040   13.694912    ( 0.0000,  0.0000,  0.0000)
  24 Cu     3.191485    3.142538   15.557280    ( 0.0000,  0.0000,  0.0000)
  25 Cu     5.808487    3.142538   15.557280    ( 0.0000,  0.0000,  0.0000)
  26 Cu     4.499986    1.834040   17.421564    ( 0.0000,  0.0000,  0.0000)
  27 Cu     4.499986    4.451042   17.421564    ( 0.0000,  0.0000,  0.0000)
  28 Cu     3.191484    3.142556   19.234911    ( 0.0000,  0.0000,  0.0000)
  29 Cu     5.808486    3.142556   19.234911    ( 0.0000,  0.0000,  0.0000)
  30 Cu     1.882980    4.451060   10.017163    ( 0.0000,  0.0000,  0.0000)
  31 Cu     1.882980    7.068062   10.017163    ( 0.0000,  0.0000,  0.0000)
  32 Cu     0.574480    5.759547   11.830784    ( 0.0000,  0.0000,  0.0000)
  33 Cu     3.191482    5.759547   11.830784    ( 0.0000,  0.0000,  0.0000)
  34 Cu     1.882983    4.451040   13.694912    ( 0.0000,  0.0000,  0.0000)
  35 Cu     1.882983    7.068043   13.694912    ( 0.0000,  0.0000,  0.0000)
  36 Cu     0.574483    5.759540   15.557280    ( 0.0000,  0.0000,  0.0000)
  37 Cu     3.191485    5.759540   15.557280    ( 0.0000,  0.0000,  0.0000)
  38 Cu     1.882984    4.451042   17.421564    ( 0.0000,  0.0000,  0.0000)
  39 Cu     1.882984    7.068044   17.421564    ( 0.0000,  0.0000,  0.0000)
  40 Cu     0.574482    5.759558   19.234911    ( 0.0000,  0.0000,  0.0000)
  41 Cu     3.191484    5.759558   19.234911    ( 0.0000,  0.0000,  0.0000)
  42 Cu     7.116984    4.451060   10.017163    ( 0.0000,  0.0000,  0.0000)
  43 Cu     7.116984    7.068062   10.017163    ( 0.0000,  0.0000,  0.0000)
  44 Cu     5.808484    5.759547   11.830785    ( 0.0000,  0.0000,  0.0000)
  45 Cu     7.116987    4.451040   13.694912    ( 0.0000,  0.0000,  0.0000)
  46 Cu     7.116987    7.068043   13.694912    ( 0.0000,  0.0000,  0.0000)
  47 Cu     5.808487    5.759540   15.557280    ( 0.0000,  0.0000,  0.0000)
  48 Cu     7.116989    4.451042   17.421564    ( 0.0000,  0.0000,  0.0000)
  49 Cu     7.116989    7.068044   17.421564    ( 0.0000,  0.0000,  0.0000)
  50 Cu     5.808486    5.759558   19.234911    ( 0.0000,  0.0000,  0.0000)
  51 Cu     4.499982    7.068062   10.017163    ( 0.0000,  0.0000,  0.0000)
  52 Cu     4.499985    7.068043   13.694912    ( 0.0000,  0.0000,  0.0000)
  53 Cu     4.499986    7.068044   17.421564    ( 0.0000,  0.0000,  0.0000)
  54 Cl     1.882983    1.834055   21.234911    ( 0.0000,  0.0000,  0.0000)
  55 Cl     4.382983    1.834055   21.234911    ( 0.0000,  0.0000,  0.0000)
  56 Cl     4.382983    4.534055   21.234911    ( 0.0000,  0.0000,  0.0000)
  57 Cl     1.682983    4.534055   21.234911    ( 0.0000,  0.0000,  0.0000)
  58 Cl     2.982983    7.534055   21.234911    ( 0.0000,  0.0000,  0.0000)
  59 Cl     7.182983    7.134055   21.234911    ( 0.0000,  0.0000,  0.0000)
  60 Cl     7.582983    3.134055   21.234911    ( 0.0000,  0.0000,  0.0000)
  61 Cl     0.647269    0.412626    7.934911    ( 0.0000,  0.0000,  0.0000)
  62 Cl     3.147269    0.412626    7.934911    ( 0.0000,  0.0000,  0.0000)
  63 Cl     3.147269    3.112626    7.934911    ( 0.0000,  0.0000,  0.0000)
  64 Cl     0.447269    3.112626    7.934911    ( 0.0000,  0.0000,  0.0000)
  65 Cl     1.747269    6.112626    7.934911    ( 0.0000,  0.0000,  0.0000)
  66 Cl     5.947269    5.712626    7.934911    ( 0.0000,  0.0000,  0.0000)
  67 Cl     6.347269    1.712626    7.934911    ( 0.0000,  0.0000,  0.0000)

Unit cell:
           periodic     x           y           z      points  spacing
  1. axis:    yes    7.851007    0.000000    0.000000    45     0.1655
  2. axis:    yes    2.617002    7.851007    0.000000    48     0.1636
  3. axis:    yes    0.000000    0.000000   30.683867   175     0.1753

  Lengths:   7.851007   8.275688  30.683867
  Angles:   90.000000  90.000000  71.565053

Effective grid spacing dv^(1/3) = 0.1710

     iter     time        total  log10-change:
                         energy  eigst   dens
iter:   1 14:30:29 -5055.915719
iter:   2 14:31:45 -4831.742894  +1.21  -0.67
iter:   3 14:33:02 -4669.456074  +0.28  -0.89
iter:   4 14:34:18 -4651.760192  -0.89  -1.16
iter:   5 14:35:35 -4616.136617  -1.23  -1.24
iter:   6 14:36:51 -4595.584654  -1.21  -1.38
iter:   7 14:38:07 -4611.283515  -1.96  -1.51
iter:   8 14:39:24 -4629.330610  -2.08  -1.44
iter:   9 14:40:41 -4604.422791  -2.14  -1.41
iter:  10 14:41:57 -4610.455374  -1.53  -1.60
iter:  11 14:43:14 -4597.439448  -2.70  -1.42
iter:  12 14:44:30 -4593.564722  -3.09  -1.52
iter:  13 14:45:46 -4599.168577  -3.16  -1.54
iter:  14 14:47:02 -4597.521433  -3.23  -1.51
iter:  15 14:48:18 -4591.420037  -1.69  -1.52
iter:  16 14:49:34 -4592.185040  -2.19  -1.53
iter:  17 14:50:50 -4588.614441  -2.23  -1.59
iter:  18 14:52:06 -4588.206158  -3.54  -1.69
iter:  19 14:53:23 -4587.594236  -3.29  -1.69
iter:  20 14:54:39 -4590.199990  -2.59  -1.74
iter:  21 14:55:55 -4590.961949  -2.45  -1.68
iter:  22 14:57:11 -4586.965860  -2.91  -1.68
iter:  23 14:58:27 -4587.067714  -2.89  -2.02
iter:  24 14:59:43 -4586.756315c -3.64  -2.16
iter:  25 15:00:59 -4586.723190c -4.36  -2.41
iter:  26 15:02:16 -4586.786827c -3.78  -2.45
iter:  27 15:03:32 -4586.669214c -4.09  -2.39
iter:  28 15:04:49 -4586.668340c -3.84  -2.71
iter:  29 15:06:06 -4586.650715c -4.43  -2.77
iter:  30 15:07:23 -4586.647731c -5.00  -2.92
iter:  31 15:08:39 -4586.642955c -5.47  -3.10
iter:  32 15:09:55 -4586.643351c -4.76  -3.23
iter:  33 15:11:11 -4586.641716c -5.92  -3.34
iter:  34 15:12:28 -4586.641339c -5.61  -3.43
iter:  35 15:13:44 -4586.640931c -5.34  -3.52
iter:  36 15:15:00 -4586.641418c -6.25  -3.63
iter:  37 15:16:17 -4586.641035c -6.61  -3.60
iter:  38 15:17:35 -4586.640805c -6.69  -3.71
iter:  39 15:18:53 -4586.640976c -5.99  -3.78
iter:  40 15:20:10 -4586.640815c -6.68  -3.88
iter:  41 15:21:28 -4586.640820c -6.77  -3.99
iter:  42 15:22:46 -4586.640753c -6.49  -4.05c
iter:  43 15:24:03 -4586.640874c -6.81  -4.21c
iter:  44 15:25:21 -4586.640800c -7.55c -4.26c

Converged after 44 iterations.

Dipole moment: (-26.110976, -33.790837, 0.052930) |e|*Ang

Energy contributions relative to reference atoms: (reference = -2606927.690960)

Kinetic:       +568.215267
Potential:     -579.583637
External:        +0.000000
XC:            -4573.898562
Entropy (-ST):   -1.072582
Local:           -0.837577
--------------------------
Free energy:   -4587.177091
Extrapolated:  -4586.640800

Showing only first 2 kpts
 Kpt  Band  Eigenvalues  Occupancy
  0   344     -0.22478    1.73681
  0   345     -0.16134    1.55545
  0   346     -0.10570    1.33462
  0   347     -0.00386    0.84023

  1   344     -0.12667    1.42426
  1   345     -0.07232    1.17917
  1   346     -0.02258    0.93253
  1   347      0.00923    0.77718


Fermi level: -0.03609

No gap

Forces in eV/Ang:
  0 Cu    0.07619    0.07279   -0.28984
  1 Cu   -0.01880    0.00670    0.07299
  2 Cu    0.00913    0.01937    0.13448
  3 Cu    0.00387   -0.00015    0.06298
  4 Cu   -0.00013    0.00932   -0.06025
  5 Cu    0.01000   -0.00486   -0.03570
  6 Cu   -0.02509   -0.00296   -0.10062
  7 Cu   -0.00059    0.14731   -0.48562
  8 Cu   -0.00841   -0.11594    0.32792
  9 Cu   -0.01766   -0.00260    0.07768
 10 Cu   -0.00385   -0.00294   -0.05479
 11 Cu    0.28399    0.01605   -1.03596
 12 Cu    0.08158    0.07157    0.60458
 13 Cu   -0.01187   -0.05285    0.04862
 14 Cu   -0.00731   -0.00729    0.06449
 15 Cu   -0.00754   -0.00544   -0.05433
 16 Cu   -0.01855   -0.05243   -0.08597
 17 Cu    0.01435   -0.04130    0.39849
 18 Cu    0.03728    0.02210   -0.51018
 19 Cu    0.03240    0.00138   -0.57324
 20 Cu   -0.00046    0.01283    0.08617
 21 Cu   -0.00674    0.01048    0.10508
 22 Cu    0.00438    0.00775    0.04442
 23 Cu   -0.00878   -0.01216    0.07745
 24 Cu   -0.00153   -0.00247   -0.05439
 25 Cu    0.00583    0.01278   -0.04298
 26 Cu    0.02254    0.02568   -0.16831
 27 Cu    0.00730    0.01078   -0.11365
 28 Cu    0.09835    0.03158    0.23464
 29 Cu    0.06532   -0.01352    0.51797
 30 Cu    0.06238    0.10510   -0.64912
 31 Cu   -0.05354   -0.07795   -0.14766
 32 Cu   -0.01551    0.01394    0.08379
 33 Cu    0.03911    0.00313    0.10066
 34 Cu    0.00817    0.01143    0.04100
 35 Cu    0.00452    0.00544    0.05594
 36 Cu   -0.00018    0.00048   -0.04438
 37 Cu    0.00805    0.00973   -0.03237
 38 Cu   -0.01072   -0.00872   -0.12181
 39 Cu   -0.00965    0.00610   -0.10598
 40 Cu   -0.05235    0.09925    0.55373
 41 Cu    0.07045    0.08720    0.61504
 42 Cu   -0.07303    0.10425   -0.59648
 43 Cu   -0.01973   -0.02583   -0.41668
 44 Cu   -0.03138   -0.02645    0.07610
 45 Cu    0.00142    0.00551    0.04525
 46 Cu   -0.00795   -0.00422    0.05645
 47 Cu   -0.00777   -0.01075   -0.07243
 48 Cu   -0.01793    0.01967   -0.12665
 49 Cu   -0.02757   -0.05191   -0.09478
 50 Cu    0.00827    0.01488    0.57666
 51 Cu   -0.02442   -0.06140   -0.35217
 52 Cu    0.00513   -0.00276    0.05325
 53 Cu    0.03609    0.01372   -0.12005
 54 Cl    1.42728   -1.26719    0.00967
 55 Cl    1.66508    0.71007   -0.17288
 56 Cl    1.40685    1.48836   -0.82306
 57 Cl    0.42019    2.65525   -0.14757
 58 Cl   -1.16652   -1.29937    0.36437
 59 Cl    0.04796   -2.21163   -1.00966
 60 Cl   -4.23425   -0.27178    1.00043
 61 Cl    1.41375   -1.30342    0.05033
 62 Cl    1.51588    0.59421    0.18575
 63 Cl    1.29120    1.26161    0.87299
 64 Cl    0.39954    2.43053    0.20954
 65 Cl   -1.01240   -0.98806    0.36799
 66 Cl    0.05243   -1.97532    1.06011
 67 Cl   -3.73515   -0.21367   -0.55471

System changes: positions 

Initializing position-dependent things.

Density initialized from wave functions
                                      
                                      
                                      
                                      
                  Cl        Cl        
                                      
             Cl     Cl    Cl          
           CCl   CCl    Cu            
                                      
         Cu    CCu   CCu    Cu        
             Cu     Cu    Cu          
        Cu    Cu     Cu               
           CCu   CCu    CCu           
         Cu    CCu   CCu    Cu        
                                      
        Cu   CCu    CCu   Cu          
           CCu   CCu    CCu           
                                      
         Cu    CCu   CCu    Cu        
        Cu   CCu    CCu   Cu          
                                      
            CuCl  Cu    CCu           
         Cl     Cl                    
                      Cl              
        Cl    Cl                      
                                      
                                      
                                      
                                      

Positions:
   0 Cu     1.886476    1.837397   10.003865    ( 0.0000,  0.0000,  0.0000)
   1 Cu     0.573616    0.525849   11.834134    ( 0.0000,  0.0000,  0.0000)
   2 Cu     3.191901    0.526431   11.836954    ( 0.0000,  0.0000,  0.0000)
   3 Cu     1.883160    1.834031   13.697802    ( 0.0000,  0.0000,  0.0000)
   4 Cu     0.574477    0.525962   15.554516    ( 0.0000,  0.0000,  0.0000)
   5 Cu     3.191944    0.525312   15.555642    ( 0.0000,  0.0000,  0.0000)
   6 Cu     1.881833    1.833904   17.416948    ( 0.0000,  0.0000,  0.0000)
   7 Cu     0.574455    0.532312   19.212632    ( 0.0000,  0.0000,  0.0000)
   8 Cu     3.191098    0.520235   19.249956    ( 0.0000,  0.0000,  0.0000)
   9 Cu     0.573670    3.142425   11.834348    ( 0.0000,  0.0000,  0.0000)
  10 Cu     0.574306    3.142403   15.554766    ( 0.0000,  0.0000,  0.0000)
  11 Cu     0.587511    3.143292   19.187382    ( 0.0000,  0.0000,  0.0000)
  12 Cu     7.120727    1.837342   10.044900    ( 0.0000,  0.0000,  0.0000)
  13 Cu     5.807939    0.523117   11.833015    ( 0.0000,  0.0000,  0.0000)
  14 Cu     7.116652    1.833703   13.697871    ( 0.0000,  0.0000,  0.0000)
  15 Cu     5.808141    0.525285   15.554787    ( 0.0000,  0.0000,  0.0000)
  16 Cu     7.116138    1.831635   17.417620    ( 0.0000,  0.0000,  0.0000)
  17 Cu     5.809144    0.523659   19.253193    ( 0.0000,  0.0000,  0.0000)
  18 Cu     4.501692    1.835072    9.993757    ( 0.0000,  0.0000,  0.0000)
  19 Cu     4.501468    4.451123    9.990863    ( 0.0000,  0.0000,  0.0000)
  20 Cu     3.191461    3.143133   11.834737    ( 0.0000,  0.0000,  0.0000)
  21 Cu     5.808175    3.143025   11.835606    ( 0.0000,  0.0000,  0.0000)
  22 Cu     4.500186    1.834394   13.696950    ( 0.0000,  0.0000,  0.0000)
  23 Cu     4.499582    4.450482   13.698465    ( 0.0000,  0.0000,  0.0000)
  24 Cu     3.191415    3.142425   15.554785    ( 0.0000,  0.0000,  0.0000)
  25 Cu     5.808754    3.143124   15.555308    ( 0.0000,  0.0000,  0.0000)
  26 Cu     4.501020    1.835218   17.413842    ( 0.0000,  0.0000,  0.0000)
  27 Cu     4.500321    4.451537   17.416350    ( 0.0000,  0.0000,  0.0000)
  28 Cu     3.195996    3.144005   19.245676    ( 0.0000,  0.0000,  0.0000)
  29 Cu     5.811483    3.141936   19.258675    ( 0.0000,  0.0000,  0.0000)
  30 Cu     1.885842    4.455882    9.987382    ( 0.0000,  0.0000,  0.0000)
  31 Cu     1.880524    7.064486   10.010388    ( 0.0000,  0.0000,  0.0000)
  32 Cu     0.573769    5.760186   11.834628    ( 0.0000,  0.0000,  0.0000)
  33 Cu     3.193276    5.759690   11.835402    ( 0.0000,  0.0000,  0.0000)
  34 Cu     1.883358    4.451565   13.696793    ( 0.0000,  0.0000,  0.0000)
  35 Cu     1.883190    7.068292   13.697478    ( 0.0000,  0.0000,  0.0000)
  36 Cu     0.574475    5.759562   15.555244    ( 0.0000,  0.0000,  0.0000)
  37 Cu     3.191854    5.759987   15.555795    ( 0.0000,  0.0000,  0.0000)
  38 Cu     1.882492    4.450642   17.415976    ( 0.0000,  0.0000,  0.0000)
  39 Cu     1.882541    7.068324   17.416702    ( 0.0000,  0.0000,  0.0000)
  40 Cu     0.572080    5.764111   19.260316    ( 0.0000,  0.0000,  0.0000)
  41 Cu     3.194716    5.763558   19.263129    ( 0.0000,  0.0000,  0.0000)
  42 Cu     7.113634    4.455843    9.989797    ( 0.0000,  0.0000,  0.0000)
  43 Cu     7.116079    7.066877    9.998046    ( 0.0000,  0.0000,  0.0000)
  44 Cu     5.807044    5.758334   11.834277    ( 0.0000,  0.0000,  0.0000)
  45 Cu     7.117052    4.451293   13.696988    ( 0.0000,  0.0000,  0.0000)
  46 Cu     7.116622    7.067849   13.697502    ( 0.0000,  0.0000,  0.0000)
  47 Cu     5.808131    5.759047   15.553957    ( 0.0000,  0.0000,  0.0000)
  48 Cu     7.116166    4.451945   17.415754    ( 0.0000,  0.0000,  0.0000)
  49 Cu     7.115724    7.065662   17.417216    ( 0.0000,  0.0000,  0.0000)
  50 Cu     5.808865    5.760241   19.261367    ( 0.0000,  0.0000,  0.0000)
  51 Cu     4.498862    7.065245   10.001006    ( 0.0000,  0.0000,  0.0000)
  52 Cu     4.500220    7.067916   13.697355    ( 0.0000,  0.0000,  0.0000)
  53 Cu     4.501642    7.068674   17.416056    ( 0.0000,  0.0000,  0.0000)
  54 Cl     1.948465    1.775918   21.235355    ( 0.0000,  0.0000,  0.0000)
  55 Cl     4.459375    1.866632   21.226980    ( 0.0000,  0.0000,  0.0000)
  56 Cl     4.447528    4.602339   21.197150    ( 0.0000,  0.0000,  0.0000)
  57 Cl     1.702261    4.655875   21.228141    ( 0.0000,  0.0000,  0.0000)
  58 Cl     2.929464    7.474441   21.251628    ( 0.0000,  0.0000,  0.0000)
  59 Cl     7.185183    7.032588   21.188589    ( 0.0000,  0.0000,  0.0000)
  60 Cl     7.388721    3.121586   21.280809    ( 0.0000,  0.0000,  0.0000)
  61 Cl     0.712130    0.352827    7.937220    ( 0.0000,  0.0000,  0.0000)
  62 Cl     3.216816    0.439888    7.943433    ( 0.0000,  0.0000,  0.0000)
  63 Cl     3.206507    3.170508    7.974963    ( 0.0000,  0.0000,  0.0000)
  64 Cl     0.465599    3.224136    7.944525    ( 0.0000,  0.0000,  0.0000)
  65 Cl     1.700821    6.067295    7.951794    ( 0.0000,  0.0000,  0.0000)
  66 Cl     5.949674    5.622001    7.983547    ( 0.0000,  0.0000,  0.0000)
  67 Cl     6.175904    1.702823    7.909462    ( 0.0000,  0.0000,  0.0000)

Unit cell:
           periodic     x           y           z      points  spacing
  1. axis:    yes    7.851007    0.000000    0.000000    45     0.1655
  2. axis:    yes    2.617002    7.851007    0.000000    48     0.1636
  3. axis:    yes    0.000000    0.000000   30.683867   175     0.1753

  Lengths:   7.851007   8.275688  30.683867
  Angles:   90.000000  90.000000  71.565053

Effective grid spacing dv^(1/3) = 0.1710

     iter     time        total  log10-change:
                         energy  eigst   dens
iter:   1 15:27:24 -4591.249007  -1.67
iter:   2 15:28:43 -4591.750186  -2.49  -2.01
iter:   3 15:30:01 -4591.008180  -2.98  -2.06
iter:   4 15:31:20 -4590.221218  -3.49  -2.12
iter:   5 15:32:39 -4590.092528  -3.86  -2.36
iter:   6 15:33:58 -4590.033737c -3.72  -2.49
iter:   7 15:35:17 -4590.003185c -4.01  -2.63
iter:   8 15:36:35 -4589.983222c -4.46  -2.75
iter:   9 15:37:54 -4589.971750c -4.41  -2.93
iter:  10 15:39:12 -4589.973844c -5.07  -3.12
iter:  11 15:40:31 -4589.971592c -5.20  -3.21
iter:  12 15:41:49 -4589.971453c -5.36  -3.32
iter:  13 15:43:07 -4589.970927c -5.60  -3.45
iter:  14 15:44:25 -4589.970493c -6.24  -3.53
iter:  15 15:45:44 -4589.970761c -6.25  -3.67
iter:  16 15:47:02 -4589.969843c -6.08  -3.75
iter:  17 15:48:20 -4589.970270c -6.26  -3.88
iter:  18 15:49:38 -4589.970415c -6.79  -3.98
iter:  19 15:50:57 -4589.970504c -6.98  -4.04c
iter:  20 15:52:15 -4589.970322c -6.65  -4.16c
iter:  21 15:53:34 -4589.970210c -7.70c -4.19c

Converged after 21 iterations.

Dipole moment: (-25.783710, -36.947454, 0.027333) |e|*Ang

Energy contributions relative to reference atoms: (reference = -2606927.690960)

Kinetic:       +546.325536
Potential:     -564.016628
External:        +0.000000
XC:            -4570.962259
Entropy (-ST):   -0.990984
Local:           -0.821366
--------------------------
Free energy:   -4590.465702
Extrapolated:  -4589.970210

Showing only first 2 kpts
 Kpt  Band  Eigenvalues  Occupancy
  0   344     -0.40325    1.79295
  0   345     -0.36252    1.70426
  0   346     -0.32440    1.59483
  0   347     -0.15094    0.81981

  1   344     -0.25730    1.33602
  1   345     -0.18461    0.98617
  1   346     -0.14197    0.77678
  1   347     -0.10197    0.59717


Fermi level: -0.18738

No gap

Forces in eV/Ang:
  0 Cu    0.00659    0.07020   -0.37981
  1 Cu    0.02120   -0.02082    0.04955
  2 Cu    0.01334    0.01743    0.05137
  3 Cu    0.00494    0.00383    0.03756
  4 Cu    0.00358    0.00618   -0.04886
  5 Cu    0.00837   -0.00807   -0.02600
  6 Cu    0.06250   -0.02567   -0.12386
  7 Cu   -0.01055    0.02843    0.10218
  8 Cu   -0.00235   -0.05352    0.38388
  9 Cu    0.01248    0.05431    0.03748
 10 Cu   -0.00480   -0.00406   -0.04191
 11 Cu   -0.03393    0.05403    0.34683
 12 Cu   -0.02496    0.04153   -0.28955
 13 Cu   -0.04745   -0.04968    0.02397
 14 Cu   -0.00819   -0.00863    0.04168
 15 Cu   -0.00930   -0.00550   -0.03924
 16 Cu   -0.08217   -0.03481   -0.08488
 17 Cu   -0.02221   -0.02531    0.41803
 18 Cu    0.09453    0.00219   -0.59814
 19 Cu    0.00928   -0.00236   -0.62215
 20 Cu    0.01065    0.02536    0.00672
 21 Cu   -0.03580    0.03838    0.06949
 22 Cu    0.00253    0.00578    0.02918
 23 Cu   -0.00646   -0.00903    0.05174
 24 Cu   -0.00280    0.00128   -0.03568
 25 Cu    0.00593    0.00950   -0.03279
 26 Cu    0.02269    0.01999   -0.07689
 27 Cu    0.01898    0.02162   -0.02484
 28 Cu    0.03479    0.02774    0.34964
 29 Cu    0.13387   -0.02156    0.60402
 30 Cu    0.02902    0.03336   -0.63672
 31 Cu   -0.02182    0.01162   -0.19774
 32 Cu   -0.01675   -0.00869    0.01787
 33 Cu    0.03048   -0.02334    0.03464
 34 Cu    0.00187    0.01066    0.02193
 35 Cu    0.00380    0.00412    0.04051
 36 Cu    0.00206    0.00231   -0.02613
 37 Cu    0.00314    0.00970   -0.01987
 38 Cu    0.03329    0.06762   -0.08808
 39 Cu   -0.02108   -0.02602   -0.04756
 40 Cu   -0.01657    0.00013    0.60153
 41 Cu    0.02521    0.06167    0.61894
 42 Cu   -0.03267    0.02121   -0.64706
 43 Cu   -0.06476   -0.00977   -0.42478
 44 Cu   -0.02572   -0.02972    0.00150
 45 Cu    0.00445    0.00502    0.02396
 46 Cu   -0.00573   -0.00470    0.03366
 47 Cu   -0.00547   -0.00801   -0.05230
 48 Cu   -0.05057    0.04779   -0.08304
 49 Cu   -0.02387   -0.05113   -0.01947
 50 Cu   -0.01882    0.00929    0.61985
 51 Cu   -0.01909   -0.01548   -0.38282
 52 Cu    0.00355   -0.00457    0.03289
 53 Cu    0.04357   -0.03424   -0.06404
 54 Cl    0.33647   -0.67849   -0.30363
 55 Cl    1.54437    0.36526   -0.25085
 56 Cl    1.33732    1.44047   -0.97449
 57 Cl   -0.42362    1.25098   -0.54113
 58 Cl   -0.85821   -0.49947   -0.11172
 59 Cl   -0.13394   -1.65521   -1.13491
 60 Cl   -1.88065   -0.29228   -0.17872
 61 Cl    0.50572   -0.70423    0.29147
 62 Cl    1.45516    0.37186    0.23188
 63 Cl    1.25484    1.29062    1.03195
 64 Cl   -0.29859    1.26634    0.58759
 65 Cl   -0.82846   -0.51322    0.35999
 66 Cl   -0.10127   -1.59542    1.20064
 67 Cl   -1.91952   -0.26641    0.22930

System changes: positions 

Initializing position-dependent things.

Density initialized from wave functions
                                     
                                     
                                     
                                     
                 Cl         Cl       
             Cl                      
                    Cl   Cl          
           CCl   CCl   Cu            
                                     
         Cu    CCu   CCu   Cu        
             CCu   CCu    Cu         
       Cu                            
           Cu    CCu   CCu           
         Cu    Cu    CCu   Cu        
                                     
       Cu    CCu   CCu    Cu         
           Cu    CCu   CCu           
                                     
         Cu    Cu    CCu   Cu        
       Cu    CCu   CCu    Cu         
                                     
            CuCl  Cu    Cu           
         Cl     Cl                   
                     Cl              
        Cl    Cl                     
                                     
                                     
                                     
                                     

Positions:
   0 Cu     1.889971    1.840737    9.990568    ( 0.0000,  0.0000,  0.0000)
   1 Cu     0.572754    0.526157   11.837483    ( 0.0000,  0.0000,  0.0000)
   2 Cu     3.192320    0.527320   11.843124    ( 0.0000,  0.0000,  0.0000)
   3 Cu     1.883338    1.834025   13.700691    ( 0.0000,  0.0000,  0.0000)
   4 Cu     0.574471    0.526390   15.551751    ( 0.0000,  0.0000,  0.0000)
   5 Cu     3.192403    0.525089   15.554004    ( 0.0000,  0.0000,  0.0000)
   6 Cu     1.880681    1.833769   17.412332    ( 0.0000,  0.0000,  0.0000)
   7 Cu     0.574428    0.539071   19.190352    ( 0.0000,  0.0000,  0.0000)
   8 Cu     3.190712    0.514915   19.265000    ( 0.0000,  0.0000,  0.0000)
   9 Cu     0.572859    3.142306   11.837912    ( 0.0000,  0.0000,  0.0000)
  10 Cu     0.574130    3.142268   15.552253    ( 0.0000,  0.0000,  0.0000)
  11 Cu     0.600541    3.144029   19.139854    ( 0.0000,  0.0000,  0.0000)
  12 Cu     7.124469    1.840625   10.072638    ( 0.0000,  0.0000,  0.0000)
  13 Cu     5.807395    0.520693   11.835246    ( 0.0000,  0.0000,  0.0000)
  14 Cu     7.116316    1.833369   13.700830    ( 0.0000,  0.0000,  0.0000)
  15 Cu     5.807795    0.525035   15.552295    ( 0.0000,  0.0000,  0.0000)
  16 Cu     7.115287    1.829230   17.413676    ( 0.0000,  0.0000,  0.0000)
  17 Cu     5.809803    0.521765   19.271476    ( 0.0000,  0.0000,  0.0000)
  18 Cu     4.503403    1.836086    9.970350    ( 0.0000,  0.0000,  0.0000)
  19 Cu     4.502955    4.451187    9.964564    ( 0.0000,  0.0000,  0.0000)
  20 Cu     3.191440    3.143721   11.838691    ( 0.0000,  0.0000,  0.0000)
  21 Cu     5.807866    3.143505   11.840427    ( 0.0000,  0.0000,  0.0000)
  22 Cu     4.500387    1.834749   13.698988    ( 0.0000,  0.0000,  0.0000)
  23 Cu     4.499180    4.449924   13.702019    ( 0.0000,  0.0000,  0.0000)
  24 Cu     3.191345    3.142312   15.552289    ( 0.0000,  0.0000,  0.0000)
  25 Cu     5.809022    3.143711   15.553336    ( 0.0000,  0.0000,  0.0000)
  26 Cu     4.502054    1.836396   17.406120    ( 0.0000,  0.0000,  0.0000)
  27 Cu     4.500656    4.452031   17.411136    ( 0.0000,  0.0000,  0.0000)
  28 Cu     3.200509    3.145454   19.256441    ( 0.0000,  0.0000,  0.0000)
  29 Cu     5.814479    3.141316   19.282439    ( 0.0000,  0.0000,  0.0000)
  30 Cu     1.888704    4.460703    9.957602    ( 0.0000,  0.0000,  0.0000)
  31 Cu     1.878067    7.060910   10.003614    ( 0.0000,  0.0000,  0.0000)
  32 Cu     0.573057    5.760826   11.838472    ( 0.0000,  0.0000,  0.0000)
  33 Cu     3.195071    5.759834   11.840021    ( 0.0000,  0.0000,  0.0000)
  34 Cu     1.883733    4.452089   13.698674    ( 0.0000,  0.0000,  0.0000)
  35 Cu     1.883397    7.068542   13.700045    ( 0.0000,  0.0000,  0.0000)
  36 Cu     0.574466    5.759584   15.553208    ( 0.0000,  0.0000,  0.0000)
  37 Cu     3.192224    5.760433   15.554310    ( 0.0000,  0.0000,  0.0000)
  38 Cu     1.882000    4.450242   17.410387    ( 0.0000,  0.0000,  0.0000)
  39 Cu     1.882099    7.068604   17.411840    ( 0.0000,  0.0000,  0.0000)
  40 Cu     0.569679    5.768665   19.285720    ( 0.0000,  0.0000,  0.0000)
  41 Cu     3.197948    5.767559   19.291346    ( 0.0000,  0.0000,  0.0000)
  42 Cu     7.110283    4.460626    9.962432    ( 0.0000,  0.0000,  0.0000)
  43 Cu     7.115174    7.065692    9.978929    ( 0.0000,  0.0000,  0.0000)
  44 Cu     5.805605    5.757120   11.837768    ( 0.0000,  0.0000,  0.0000)
  45 Cu     7.117117    4.451545   13.699064    ( 0.0000,  0.0000,  0.0000)
  46 Cu     7.116258    7.067656   13.700092    ( 0.0000,  0.0000,  0.0000)
  47 Cu     5.807774    5.758553   15.550634    ( 0.0000,  0.0000,  0.0000)
  48 Cu     7.115344    4.452847   17.409943    ( 0.0000,  0.0000,  0.0000)
  49 Cu     7.114459    7.063280   17.412867    ( 0.0000,  0.0000,  0.0000)
  50 Cu     5.809245    5.760924   19.287824    ( 0.0000,  0.0000,  0.0000)
  51 Cu     4.497742    7.062428    9.984848    ( 0.0000,  0.0000,  0.0000)
  52 Cu     4.500455    7.067790   13.699798    ( 0.0000,  0.0000,  0.0000)
  53 Cu     4.503297    7.069303   17.410549    ( 0.0000,  0.0000,  0.0000)
  54 Cl     2.013947    1.717780   21.235799    ( 0.0000,  0.0000,  0.0000)
  55 Cl     4.535766    1.899209   21.219048    ( 0.0000,  0.0000,  0.0000)
  56 Cl     4.512072    4.670623   21.159389    ( 0.0000,  0.0000,  0.0000)
  57 Cl     1.721539    4.777695   21.221370    ( 0.0000,  0.0000,  0.0000)
  58 Cl     2.875946    7.414828   21.268345    ( 0.0000,  0.0000,  0.0000)
  59 Cl     7.187384    6.931121   21.142267    ( 0.0000,  0.0000,  0.0000)
  60 Cl     7.194458    3.109117   21.326708    ( 0.0000,  0.0000,  0.0000)
  61 Cl     0.776991    0.293028    7.939529    ( 0.0000,  0.0000,  0.0000)
  62 Cl     3.286362    0.467150    7.951955    ( 0.0000,  0.0000,  0.0000)
  63 Cl     3.265746    3.228389    8.015015    ( 0.0000,  0.0000,  0.0000)
  64 Cl     0.483930    3.335646    7.954138    ( 0.0000,  0.0000,  0.0000)
  65 Cl     1.654373    6.021964    7.968677    ( 0.0000,  0.0000,  0.0000)
  66 Cl     5.952080    5.531375    8.032184    ( 0.0000,  0.0000,  0.0000)
  67 Cl     6.004540    1.693020    7.884012    ( 0.0000,  0.0000,  0.0000)

Unit cell:
           periodic     x           y           z      points  spacing
  1. axis:    yes    7.851007    0.000000    0.000000    45     0.1655
  2. axis:    yes    2.617002    7.851007    0.000000    48     0.1636
  3. axis:    yes    0.000000    0.000000   30.683867   175     0.1753

  Lengths:   7.851007   8.275688  30.683867
  Angles:   90.000000  90.000000  71.565053

Effective grid spacing dv^(1/3) = 0.1710

     iter     time        total  log10-change:
                         energy  eigst   dens
iter:   1 15:55:40 -4593.251401  -1.76
iter:   2 15:56:58 -4596.255797  -2.30  -2.01
iter:   3 15:58:16 -4593.020478  -2.66  -1.89
iter:   4 15:59:34 -4591.956147  -3.40  -2.14
iter:   5 16:00:53 -4591.903550  -3.88  -2.45
iter:   6 16:02:11 -4591.859552c -3.83  -2.51
iter:   7 16:03:29 -4591.835981c -3.99  -2.61
iter:   8 16:04:47 -4591.813518c -4.04  -2.73
iter:   9 16:06:05 -4591.845234c -4.41  -2.87
iter:  10 16:07:23 -4591.800421c -4.82  -2.69
iter:  11 16:08:40 -4591.793962c -4.71  -3.01
iter:  12 16:09:58 -4591.787530c -5.23  -3.08
iter:  13 16:11:16 -4591.785921c -5.66  -3.36
iter:  14 16:12:34 -4591.784706c -5.66  -3.49
iter:  15 16:13:52 -4591.785609c -5.75  -3.65
iter:  16 16:15:10 -4591.784926c -6.40  -3.73
iter:  17 16:16:28 -4591.785674c -6.50  -3.98
iter:  18 16:17:46 -4591.785049c -7.00  -3.90
iter:  19 16:19:04 -4591.785289c -6.63  -4.08c
iter:  20 16:20:22 -4591.785162c -7.47c -4.26c

Converged after 20 iterations.

Dipole moment: (-25.209552, -39.586124, 0.022143) |e|*Ang

Energy contributions relative to reference atoms: (reference = -2606927.690960)

Kinetic:       +537.046267
Potential:     -557.455463
External:        +0.000000
XC:            -4570.119164
Entropy (-ST):   -0.904015
Local:           -0.804794
--------------------------
Free energy:   -4592.237169
Extrapolated:  -4591.785162

Showing only first 2 kpts
 Kpt  Band  Eigenvalues  Occupancy
  0   344     -0.49479    1.84100
  0   345     -0.44859    1.75889
  0   346     -0.40799    1.65874
  0   347     -0.21063    0.80626

  1   344     -0.29702    1.23148
  1   345     -0.22181    0.86062
  1   346     -0.17967    0.66274
  1   347     -0.13837    0.49387


Fermi level: -0.24987

No gap

Forces in eV/Ang:
  0 Cu   -0.03768    0.06877   -0.39102
  1 Cu    0.05783   -0.04761    0.02558
  2 Cu    0.01681    0.01472   -0.02942
  3 Cu    0.00318    0.00618    0.02070
  4 Cu    0.00605    0.00579   -0.03981
  5 Cu    0.00539   -0.00836   -0.02150
  6 Cu    0.15240   -0.05462   -0.15832
  7 Cu   -0.03198   -0.07417    0.48400
  8 Cu   -0.00979   -0.01400    0.35696
  9 Cu    0.04502    0.10849   -0.00309
 10 Cu   -0.00546   -0.00616   -0.03552
 11 Cu   -0.21563    0.06741    0.90461
 12 Cu   -0.11622    0.01299   -0.73565
 13 Cu   -0.07901   -0.04798   -0.00088
 14 Cu   -0.00796   -0.00919    0.02802
 15 Cu   -0.00906   -0.00551   -0.03165
 16 Cu   -0.14433   -0.02289   -0.09001
 17 Cu   -0.03065   -0.00780    0.37258
 18 Cu    0.12200   -0.00179   -0.56867
 19 Cu   -0.01406   -0.01108   -0.61188
 20 Cu    0.01928    0.03455   -0.07019
 21 Cu   -0.06399    0.06182    0.03173
 22 Cu    0.00260    0.00299    0.01840
 23 Cu   -0.00313   -0.00643    0.03076
 24 Cu   -0.00643    0.00431   -0.02178
 25 Cu    0.00837    0.00503   -0.02689
 26 Cu    0.02146    0.01191    0.01160
 27 Cu    0.02529    0.03007    0.06033
 28 Cu   -0.00356    0.02367    0.36146
 29 Cu    0.16052   -0.01218    0.50289
 30 Cu    0.01432   -0.03663   -0.55024
 31 Cu   -0.00224    0.08113   -0.21221
 32 Cu   -0.01800   -0.02884   -0.04548
 33 Cu    0.02329   -0.04383   -0.03039
 34 Cu   -0.00421    0.00852    0.01096
 35 Cu    0.00318    0.00543    0.02976
 36 Cu    0.00361    0.00177   -0.01566
 37 Cu   -0.00152    0.00921   -0.01426
 38 Cu    0.08626    0.14707   -0.06138
 39 Cu   -0.03249   -0.05502    0.00604
 40 Cu    0.00691   -0.08058    0.47773
 41 Cu    0.00524    0.05189    0.51481
 42 Cu    0.01551   -0.06150   -0.57680
 43 Cu   -0.08372    0.00716   -0.38769
 44 Cu   -0.02162   -0.02979   -0.07095
 45 Cu    0.00585    0.00155    0.00878
 46 Cu   -0.00313   -0.00471    0.01671
 47 Cu   -0.00327   -0.00624   -0.03685
 48 Cu   -0.08285    0.07317   -0.04387
 49 Cu   -0.01981   -0.04397    0.05303
 50 Cu   -0.03544   -0.00048    0.55150
 51 Cu   -0.01799    0.00725   -0.34824
 52 Cu    0.00111   -0.00353    0.02060
 53 Cu    0.05019   -0.07413   -0.01211
 54 Cl   -0.20972   -0.43191   -0.45174
 55 Cl    1.21950   -0.03957   -0.23717
 56 Cl    1.04222    1.40519   -1.04276
 57 Cl   -0.95704    0.01327   -0.60707
 58 Cl   -0.52068    0.33249   -0.37218
 59 Cl   -0.30266   -1.01608   -1.09726
 60 Cl   -0.15731   -0.22687   -0.51859
 61 Cl    0.04672   -0.42022    0.42210
 62 Cl    1.22148    0.06609    0.22899
 63 Cl    1.03224    1.35964    1.16263
 64 Cl   -0.79563    0.22022    0.74434
 65 Cl   -0.61416    0.06516    0.32645
 66 Cl   -0.26201   -1.12906    1.21835
 67 Cl   -0.48678   -0.23717    0.59073

System changes: positions 

Initializing position-dependent things.

Density initialized from wave functions
                                     
                                     
                                     
                                     
                 Cl         Cl       
             Cl                      
                    Cl   Cl          
           CCl   CCl    Cu           
                                     
         Cu    CCu   CCu    Cu       
        Cu   CCu    Cu    Cu         
                                     
           CCu   CCu    Cu           
         Cu    CCu   CCu    Cu       
                                     
        Cu   CCu    Cu    Cu         
           CCu   CCu    Cu           
                                     
         Cu    CCu   CCu    Cu       
        Cu   CCu    Cu    Cu         
                                     
            CuCl  Cu    Cu           
         Cl     Cl                   
                     Cl              
        Cl    Cl                     
                                     
                                     
                                     
                                     

Positions:
   0 Cu     1.888796    1.847474    9.954949    ( 0.0000,  0.0000,  0.0000)
   1 Cu     0.576685    0.522730   11.840984    ( 0.0000,  0.0000,  0.0000)
   2 Cu     3.193779    0.528844   11.843832    ( 0.0000,  0.0000,  0.0000)
   3 Cu     1.883661    1.834485   13.703609    ( 0.0000,  0.0000,  0.0000)
   4 Cu     0.574922    0.527026   15.547458    ( 0.0000,  0.0000,  0.0000)
   5 Cu     3.193024    0.524357   15.551617    ( 0.0000,  0.0000,  0.0000)
   6 Cu     1.891571    1.829607   17.398273    ( 0.0000,  0.0000,  0.0000)
   7 Cu     0.572016    0.536700   19.216135    ( 0.0000,  0.0000,  0.0000)
   8 Cu     3.189796    0.511352   19.298889    ( 0.0000,  0.0000,  0.0000)
   9 Cu     0.575854    3.150389   11.839364    ( 0.0000,  0.0000,  0.0000)
  10 Cu     0.573636    3.141743   15.548400    ( 0.0000,  0.0000,  0.0000)
  11 Cu     0.590520    3.149434   19.185260    ( 0.0000,  0.0000,  0.0000)
  12 Cu     7.117519    1.843152   10.030555    ( 0.0000,  0.0000,  0.0000)
  13 Cu     5.801210    0.515947   11.836233    ( 0.0000,  0.0000,  0.0000)
  14 Cu     7.115560    1.832522   13.704330    ( 0.0000,  0.0000,  0.0000)
  15 Cu     5.806952    0.524504   15.548743    ( 0.0000,  0.0000,  0.0000)
  16 Cu     7.104057    1.826375   17.405059    ( 0.0000,  0.0000,  0.0000)
  17 Cu     5.807814    0.520285   19.308066    ( 0.0000,  0.0000,  0.0000)
  18 Cu     4.513363    1.836430    9.916628    ( 0.0000,  0.0000,  0.0000)
  19 Cu     4.502602    4.450386    9.906232    ( 0.0000,  0.0000,  0.0000)
  20 Cu     3.192876    3.146591   11.835293    ( 0.0000,  0.0000,  0.0000)
  21 Cu     5.802919    3.148370   11.845085    ( 0.0000,  0.0000,  0.0000)
  22 Cu     4.500677    1.835142   13.701332    ( 0.0000,  0.0000,  0.0000)
  23 Cu     4.498755    4.449178   13.706005    ( 0.0000,  0.0000,  0.0000)
  24 Cu     3.190829    3.142582   15.549476    ( 0.0000,  0.0000,  0.0000)
  25 Cu     5.809776    3.144365   15.550387    ( 0.0000,  0.0000,  0.0000)
  26 Cu     4.504153    1.837846   17.403341    ( 0.0000,  0.0000,  0.0000)
  27 Cu     4.502712    4.454521   17.413198    ( 0.0000,  0.0000,  0.0000)
  28 Cu     3.202374    3.147915   19.288646    ( 0.0000,  0.0000,  0.0000)
  29 Cu     5.827937    3.140109   19.331395    ( 0.0000,  0.0000,  0.0000)
  30 Cu     1.891131    4.460233    9.902250    ( 0.0000,  0.0000,  0.0000)
  31 Cu     1.876738    7.065306    9.984492    ( 0.0000,  0.0000,  0.0000)
  32 Cu     0.571370    5.758965   11.836877    ( 0.0000,  0.0000,  0.0000)
  33 Cu     3.197666    5.756613   11.839923    ( 0.0000,  0.0000,  0.0000)
  34 Cu     1.883595    4.452976   13.700385    ( 0.0000,  0.0000,  0.0000)
  35 Cu     1.883734    7.069067   13.703490    ( 0.0000,  0.0000,  0.0000)
  36 Cu     0.574733    5.759727   15.551071    ( 0.0000,  0.0000,  0.0000)
  37 Cu     3.192284    5.761336   15.552539    ( 0.0000,  0.0000,  0.0000)
  38 Cu     1.888239    4.461086   17.403142    ( 0.0000,  0.0000,  0.0000)
  39 Cu     1.879452    7.064608   17.409995    ( 0.0000,  0.0000,  0.0000)
  40 Cu     0.569062    5.764771   19.333565    ( 0.0000,  0.0000,  0.0000)
  41 Cu     3.199868    5.773342   19.343301    ( 0.0000,  0.0000,  0.0000)
  42 Cu     7.109864    4.458272    9.906228    ( 0.0000,  0.0000,  0.0000)
  43 Cu     7.108465    7.065669    9.940811    ( 0.0000,  0.0000,  0.0000)
  44 Cu     5.803303    5.754312   11.834095    ( 0.0000,  0.0000,  0.0000)
  45 Cu     7.117587    4.451781   13.700703    ( 0.0000,  0.0000,  0.0000)
  46 Cu     7.115850    7.067211   13.702569    ( 0.0000,  0.0000,  0.0000)
  47 Cu     5.807361    5.757852   15.546299    ( 0.0000,  0.0000,  0.0000)
  48 Cu     7.108740    4.458763   17.403907    ( 0.0000,  0.0000,  0.0000)
  49 Cu     7.112375    7.058856   17.414791    ( 0.0000,  0.0000,  0.0000)
  50 Cu     5.806766    5.761210   19.341700    ( 0.0000,  0.0000,  0.0000)
  51 Cu     4.495862    7.061640    9.951088    ( 0.0000,  0.0000,  0.0000)
  52 Cu     4.500650    7.067465   13.702497    ( 0.0000,  0.0000,  0.0000)
  53 Cu     4.507845    7.064039   17.407038    ( 0.0000,  0.0000,  0.0000)
  54 Cl     2.029156    1.657906   21.202118    ( 0.0000,  0.0000,  0.0000)
  55 Cl     4.663352    1.911635   21.197508    ( 0.0000,  0.0000,  0.0000)
  56 Cl     4.620760    4.808309   21.063317    ( 0.0000,  0.0000,  0.0000)
  57 Cl     1.658850    4.836254   21.172628    ( 0.0000,  0.0000,  0.0000)
  58 Cl     2.811595    7.411602   21.248323    ( 0.0000,  0.0000,  0.0000)
  59 Cl     7.165717    6.806948   21.038061    ( 0.0000,  0.0000,  0.0000)
  60 Cl     7.090862    3.086205   21.309491    ( 0.0000,  0.0000,  0.0000)
  61 Cl     0.811145    0.233246    7.972287    ( 0.0000,  0.0000,  0.0000)
  62 Cl     3.410862    0.484990    7.973161    ( 0.0000,  0.0000,  0.0000)
  63 Cl     3.371178    3.357741    8.121162    ( 0.0000,  0.0000,  0.0000)
  64 Cl     0.432902    3.404859    8.014522    ( 0.0000,  0.0000,  0.0000)
  65 Cl     1.586351    6.005432    8.001145    ( 0.0000,  0.0000,  0.0000)
  66 Cl     5.933560    5.403849    8.146568    ( 0.0000,  0.0000,  0.0000)
  67 Cl     5.887046    1.670595    7.916304    ( 0.0000,  0.0000,  0.0000)

Unit cell:
           periodic     x           y           z      points  spacing
  1. axis:    yes    7.851007    0.000000    0.000000    45     0.1655
  2. axis:    yes    2.617002    7.851007    0.000000    48     0.1636
  3. axis:    yes    0.000000    0.000000   30.683867   175     0.1753

  Lengths:   7.851007   8.275688  30.683867
  Angles:   90.000000  90.000000  71.565053

Effective grid spacing dv^(1/3) = 0.1710

     iter     time        total  log10-change:
                         energy  eigst   dens
iter:   1 16:22:26 -4614.558009  -1.28
iter:   2 16:23:44 -4604.891126  -1.23  -1.42
iter:   3 16:25:02 -4594.642534  -2.16  -1.77
iter:   4 16:26:20 -4595.997388  -2.71  -2.11
iter:   5 16:27:37 -4594.141639  -3.53  -1.97
iter:   6 16:28:56 -4593.767931  -3.68  -2.23
iter:   7 16:30:14 -4593.775753  -3.69  -2.43
iter:   8 16:31:33 -4593.765814c -3.07  -2.44
iter:   9 16:32:51 -4593.658873c -3.85  -2.55
iter:  10 16:34:09 -4593.641558c -4.52  -2.82
iter:  11 16:35:27 -4593.659149c -4.20  -2.89
iter:  12 16:36:44 -4593.627627c -4.67  -2.80
iter:  13 16:38:01 -4593.623075c -5.00  -3.03
iter:  14 16:39:19 -4593.624198c -4.87  -3.15
iter:  15 16:40:36 -4593.621572c -4.74  -3.24
iter:  16 16:41:53 -4593.620318c -5.51  -3.58
iter:  17 16:43:09 -4593.620245c -6.24  -3.71
iter:  18 16:44:27 -4593.620297c -5.89  -3.76
iter:  19 16:45:43 -4593.620184c -6.55  -3.86
iter:  20 16:47:00 -4593.620132c -6.78  -4.03c
iter:  21 16:48:17 -4593.620059c -7.23  -4.05c
iter:  22 16:49:34 -4593.620028c -7.05  -4.10c
iter:  23 16:50:52 -4593.620036c -6.84  -4.26c
iter:  24 16:52:09 -4593.620058c -7.05  -4.35c
iter:  25 16:53:26 -4593.620062c -6.96  -4.30c
iter:  26 16:54:45 -4593.620049c -7.92c -4.53c

Converged after 26 iterations.

Dipole moment: (-22.096466, -40.035503, 0.036377) |e|*Ang

Energy contributions relative to reference atoms: (reference = -2606927.690960)

Kinetic:       +547.967884
Potential:     -566.736211
External:        +0.000000
XC:            -4573.618478
Entropy (-ST):   -0.799611
Local:           -0.833438
--------------------------
Free energy:   -4594.019855
Extrapolated:  -4593.620049

Showing only first 2 kpts
 Kpt  Band  Eigenvalues  Occupancy
  0   344     -0.47143    1.88039
  0   345     -0.39509    1.75982
  0   346     -0.33258    1.59363
  0   347     -0.14818    0.76568

  1   344     -0.19060    0.97335
  1   345     -0.12340    0.65247
  1   346     -0.08253    0.48684
  1   347     -0.03433    0.33150


Fermi level: -0.19593

No gap

Forces in eV/Ang:
  0 Cu   -0.07121   -0.00544   -0.27398
  1 Cu    0.01839    0.00410   -0.08546
  2 Cu    0.01018    0.02219   -0.12910
  3 Cu    0.00712    0.01101   -0.02830
  4 Cu    0.00279   -0.00445    0.00232
  5 Cu    0.01895   -0.01740   -0.00323
  6 Cu    0.03753    0.00224    0.05009
  7 Cu    0.00873    0.05447    0.21224
  8 Cu   -0.05525    0.06164    0.19900
  9 Cu    0.00343    0.05612   -0.12597
 10 Cu   -0.00296    0.00213    0.00831
 11 Cu   -0.09737    0.01122    0.62937
 12 Cu   -0.02872   -0.00992   -0.53201
 13 Cu   -0.03803    0.00898   -0.09256
 14 Cu   -0.00355   -0.00440   -0.02391
 15 Cu   -0.01721   -0.01508   -0.00090
 16 Cu   -0.03525    0.01400    0.05805
 17 Cu    0.02008    0.02396    0.18978
 18 Cu    0.01338   -0.02731   -0.18308
 19 Cu   -0.00647    0.05694   -0.13656
 20 Cu    0.02057    0.01761   -0.15143
 21 Cu   -0.02673    0.01960   -0.08521
 22 Cu   -0.00537    0.00288   -0.01608
 23 Cu   -0.00661    0.00093   -0.01729
 24 Cu    0.00649    0.01513    0.01122
 25 Cu   -0.00385    0.00922   -0.00557
 26 Cu    0.01272    0.01111    0.11864
 27 Cu    0.01945    0.00836    0.14889
 28 Cu   -0.05628   -0.03866    0.23499
 29 Cu    0.01162   -0.01838   -0.01508
 30 Cu   -0.00265   -0.02915   -0.25372
 31 Cu    0.03007    0.16041   -0.01973
 32 Cu   -0.01468   -0.02685   -0.13880
 33 Cu    0.01005   -0.04785   -0.10762
 34 Cu   -0.00102    0.00767   -0.01968
 35 Cu   -0.00162   -0.00168   -0.01434
 36 Cu   -0.00352    0.00349    0.00449
 37 Cu    0.00470    0.00940   -0.00026
 38 Cu    0.02001    0.05682    0.11291
 39 Cu   -0.01557   -0.02327    0.11402
 40 Cu    0.06434   -0.10095   -0.21925
 41 Cu   -0.07825    0.08322    0.15702
 42 Cu    0.19183   -0.17794    0.03549
 43 Cu   -0.03465    0.03341   -0.23191
 44 Cu   -0.01769   -0.02614   -0.15466
 45 Cu    0.00344    0.00411   -0.02546
 46 Cu   -0.00527   -0.01045   -0.02648
 47 Cu   -0.00171   -0.00269   -0.00306
 48 Cu   -0.02555    0.01707    0.07837
 49 Cu   -0.01387   -0.02317    0.13088
 50 Cu    0.07559    0.09475   -0.19299
 51 Cu   -0.04309    0.04945   -0.20838
 52 Cu    0.00757   -0.00806   -0.01853
 53 Cu    0.01896   -0.05384    0.08108
 54 Cl    0.01251   -0.09922   -0.56850
 55 Cl    0.49262   -0.28779   -0.18529
 56 Cl    0.05874    0.67205   -0.41781
 57 Cl   -0.41282   -0.81845   -0.27937
 58 Cl   -0.57450    0.46216   -0.10979
 59 Cl   -0.39544    0.00564   -0.43364
 60 Cl    0.90627   -0.11709   -0.08696
 61 Cl    0.12449   -0.15669    0.49927
 62 Cl    0.68321   -0.19380    0.18603
 63 Cl    0.23157    0.90827    0.85086
 64 Cl   -0.50188   -0.61394    0.59720
 65 Cl   -0.58818    0.35825    0.04612
 66 Cl   -0.48125   -0.16478    0.58393
 67 Cl    0.52093   -0.20966    0.27835

System changes: positions 

Initializing position-dependent things.

Density initialized from wave functions
                                     
                                     
                                     
                                     
                 Cl                  
                           Cl        
             Cl     Cl   Cl          
           Cu    CuCl   Cu           
            Cl                       
         Cu    CCu   CCu    Cu       
        Cu   CCu    Cu    Cu         
                                     
           CCu   CCu    Cu           
         Cu    CCu   CCu    Cu       
                                     
        Cu   CCu    Cu    Cu         
           CCu   CCu    Cu           
                                     
         Cu    CCu   CCu    Cu       
        Cu   CCu    Cu    Cu         
                                     
            Cul   Cu    Cu           
         Cl      Cl                  
                     Cl              
        Cl     Cl                    
                                     
                                     
                                     
                                     

Positions:
   0 Cu     1.881435    1.848217    9.913787    ( 0.0000,  0.0000,  0.0000)
   1 Cu     0.578418    0.523613   11.831434    ( 0.0000,  0.0000,  0.0000)
   2 Cu     3.195261    0.532148   11.830247    ( 0.0000,  0.0000,  0.0000)
   3 Cu     1.884671    1.835897   13.701318    ( 0.0000,  0.0000,  0.0000)
   4 Cu     0.575260    0.526642   15.546491    ( 0.0000,  0.0000,  0.0000)
   5 Cu     3.195719    0.521999   15.550433    ( 0.0000,  0.0000,  0.0000)
   6 Cu     1.895285    1.830045   17.403065    ( 0.0000,  0.0000,  0.0000)
   7 Cu     0.573270    0.547606   19.230485    ( 0.0000,  0.0000,  0.0000)
   8 Cu     3.182408    0.516722   19.331279    ( 0.0000,  0.0000,  0.0000)
   9 Cu     0.575707    3.157241   11.824740    ( 0.0000,  0.0000,  0.0000)
  10 Cu     0.573179    3.141976   15.548329    ( 0.0000,  0.0000,  0.0000)
  11 Cu     0.585362    3.151016   19.239476    ( 0.0000,  0.0000,  0.0000)
  12 Cu     7.116153    1.843499    9.978188    ( 0.0000,  0.0000,  0.0000)
  13 Cu     5.796266    0.516059   11.825282    ( 0.0000,  0.0000,  0.0000)
  14 Cu     7.114954    1.831810   13.702620    ( 0.0000,  0.0000,  0.0000)
  15 Cu     5.804559    0.522425   15.547463    ( 0.0000,  0.0000,  0.0000)
  16 Cu     7.099576    1.827055   17.410970    ( 0.0000,  0.0000,  0.0000)
  17 Cu     5.810901    0.522471   19.340862    ( 0.0000,  0.0000,  0.0000)
  18 Cu     4.515515    1.833389    9.882836    ( 0.0000,  0.0000,  0.0000)
  19 Cu     4.502579    4.457909    9.877201    ( 0.0000,  0.0000,  0.0000)
  20 Cu     3.195479    3.149062   11.817804    ( 0.0000,  0.0000,  0.0000)
  21 Cu     5.799515    3.150939   11.836304    ( 0.0000,  0.0000,  0.0000)
  22 Cu     4.500068    1.835690   13.700208    ( 0.0000,  0.0000,  0.0000)
  23 Cu     4.497695    4.449038   13.705457    ( 0.0000,  0.0000,  0.0000)
  24 Cu     3.191667    3.144486   15.549740    ( 0.0000,  0.0000,  0.0000)
  25 Cu     5.809377    3.145853   15.548745    ( 0.0000,  0.0000,  0.0000)
  26 Cu     4.506266    1.839861   17.414826    ( 0.0000,  0.0000,  0.0000)
  27 Cu     4.505330    4.455751   17.429742    ( 0.0000,  0.0000,  0.0000)
  28 Cu     3.197357    3.143514   19.323517    ( 0.0000,  0.0000,  0.0000)
  29 Cu     5.830372    3.137433   19.339711    ( 0.0000,  0.0000,  0.0000)
  30 Cu     1.892205    4.459054    9.855853    ( 0.0000,  0.0000,  0.0000)
  31 Cu     1.879411    7.084122    9.979250    ( 0.0000,  0.0000,  0.0000)
  32 Cu     0.569154    5.755896   11.820886    ( 0.0000,  0.0000,  0.0000)
  33 Cu     3.199816    5.750602   11.828350    ( 0.0000,  0.0000,  0.0000)
  34 Cu     1.883672    4.454217   13.698740    ( 0.0000,  0.0000,  0.0000)
  35 Cu     1.883617    7.068955   13.702822    ( 0.0000,  0.0000,  0.0000)
  36 Cu     0.574254    5.760188   15.550668    ( 0.0000,  0.0000,  0.0000)
  37 Cu     3.193096    5.762759   15.551794    ( 0.0000,  0.0000,  0.0000)
  38 Cu     1.890263    4.467732   17.415266    ( 0.0000,  0.0000,  0.0000)
  39 Cu     1.877315    7.061925   17.422374    ( 0.0000,  0.0000,  0.0000)
  40 Cu     0.576211    5.754235   19.316122    ( 0.0000,  0.0000,  0.0000)
  41 Cu     3.191281    5.786088   19.376382    ( 0.0000,  0.0000,  0.0000)
  42 Cu     7.133164    4.437710    9.899012    ( 0.0000,  0.0000,  0.0000)
  43 Cu     7.103796    7.069400    9.902133    ( 0.0000,  0.0000,  0.0000)
  44 Cu     5.800330    5.750383   11.815949    ( 0.0000,  0.0000,  0.0000)
  45 Cu     7.118047    4.452443   13.698410    ( 0.0000,  0.0000,  0.0000)
  46 Cu     7.114985    7.065763   13.700377    ( 0.0000,  0.0000,  0.0000)
  47 Cu     5.806966    5.757270   15.544328    ( 0.0000,  0.0000,  0.0000)
  48 Cu     7.105300    4.461174   17.411330    ( 0.0000,  0.0000,  0.0000)
  49 Cu     7.109985    7.054769   17.429455    ( 0.0000,  0.0000,  0.0000)
  50 Cu     5.816989    5.773958   19.327945    ( 0.0000,  0.0000,  0.0000)
  51 Cu     4.489719    7.066625    9.916862    ( 0.0000,  0.0000,  0.0000)
  52 Cu     4.501757    7.066360   13.701254    ( 0.0000,  0.0000,  0.0000)
  53 Cu     4.510982    7.057614   17.414847    ( 0.0000,  0.0000,  0.0000)
  54 Cl     2.065430    1.616610   21.129768    ( 0.0000,  0.0000,  0.0000)
  55 Cl     4.762427    1.890968   21.170111    ( 0.0000,  0.0000,  0.0000)
  56 Cl     4.657664    4.925935   20.993279    ( 0.0000,  0.0000,  0.0000)
  57 Cl     1.618578    4.792050   21.134982    ( 0.0000,  0.0000,  0.0000)
  58 Cl     2.710867    7.439962   21.244060    ( 0.0000,  0.0000,  0.0000)
  59 Cl     7.116322    6.759296   20.961745    ( 0.0000,  0.0000,  0.0000)
  60 Cl     7.109714    3.065346   21.323859    ( 0.0000,  0.0000,  0.0000)
  61 Cl     0.860735    0.183529    8.037121    ( 0.0000,  0.0000,  0.0000)
  62 Cl     3.531323    0.473458    8.000992    ( 0.0000,  0.0000,  0.0000)
  63 Cl     3.427988    3.501072    8.248554    ( 0.0000,  0.0000,  0.0000)
  64 Cl     0.379855    3.381266    8.094667    ( 0.0000,  0.0000,  0.0000)
  65 Cl     1.487854    6.028628    8.014609    ( 0.0000,  0.0000,  0.0000)
  66 Cl     5.872887    5.339950    8.243259    ( 0.0000,  0.0000,  0.0000)
  67 Cl     5.868618    1.639045    7.937244    ( 0.0000,  0.0000,  0.0000)

Unit cell:
           periodic     x           y           z      points  spacing
  1. axis:    yes    7.851007    0.000000    0.000000    45     0.1655
  2. axis:    yes    2.617002    7.851007    0.000000    48     0.1636
  3. axis:    yes    0.000000    0.000000   30.683867   175     0.1753

  Lengths:   7.851007   8.275688  30.683867
  Angles:   90.000000  90.000000  71.565053

Effective grid spacing dv^(1/3) = 0.1710

     iter     time        total  log10-change:
                         energy  eigst   dens
iter:   1 16:56:48 -4623.216736  -1.29
iter:   2 16:58:06 -4644.409499  -0.82  -1.41
iter:   3 16:59:23 -4621.085841  -1.08  -1.41
iter:   4 17:00:41 -4597.709823  -1.89  -1.59
iter:   5 17:01:59 -4595.440315  -2.77  -1.98
iter:   6 17:03:18 -4595.093213  -3.13  -2.17
iter:   7 17:04:37 -4594.849366  -2.95  -2.23
iter:   8 17:05:55 -4594.656260  -4.05  -2.33
iter:   9 17:07:14 -4594.494522  -3.34  -2.40
iter:  10 17:08:33 -4594.405696c -3.51  -2.56
iter:  11 17:09:51 -4594.392369c -4.24  -2.83
iter:  12 17:11:10 -4594.394270c -4.65  -2.95
iter:  13 17:12:28 -4594.385750c -4.49  -2.94
iter:  14 17:13:47 -4594.384437c -5.35  -3.15
iter:  15 17:15:06 -4594.383075c -5.29  -3.21
iter:  16 17:16:24 -4594.381668c -5.09  -3.35
iter:  17 17:17:43 -4594.381206c -6.05  -3.44
iter:  18 17:19:01 -4594.381056c -5.53  -3.53
iter:  19 17:20:20 -4594.380808c -5.95  -3.75
iter:  20 17:21:38 -4594.380609c -6.67  -3.81
iter:  21 17:22:57 -4594.380479c -6.45  -4.04c
iter:  22 17:24:15 -4594.380529c -7.24  -4.20c
iter:  23 17:25:34 -4594.380570c -7.65c -4.30c

Converged after 23 iterations.

Dipole moment: (-21.381385, -38.270735, -0.017342) |e|*Ang

Energy contributions relative to reference atoms: (reference = -2606927.690960)

Kinetic:       +565.483299
Potential:     -580.987195
External:        +0.000000
XC:            -4577.673427
Entropy (-ST):   -0.775439
Local:           -0.815528
--------------------------
Free energy:   -4594.768290
Extrapolated:  -4594.380570

Showing only first 2 kpts
 Kpt  Band  Eigenvalues  Occupancy
  0   344     -0.39665    1.87766
  0   345     -0.30466    1.71898
  0   346     -0.25486    1.57606
  0   347     -0.06513    0.71593

  1   344     -0.08494    0.80931
  1   345     -0.02447    0.54153
  1   346     -0.00120    0.45464
  1   347      0.05088    0.29753


Fermi level: -0.12355

No gap

Forces in eV/Ang:
  0 Cu   -0.09595   -0.06938   -0.10838
  1 Cu    0.00190    0.03447   -0.08835
  2 Cu   -0.01223    0.00888   -0.14706
  3 Cu    0.00562    0.01318   -0.05924
  4 Cu    0.00376   -0.00360    0.03407
  5 Cu    0.00917   -0.00473    0.03016
  6 Cu   -0.00539    0.03089    0.07876
  7 Cu   -0.00410    0.03663    0.13433
  8 Cu   -0.00304    0.01665   -0.03074
  9 Cu    0.01937   -0.01975   -0.10489
 10 Cu    0.00363    0.00544    0.03292
 11 Cu   -0.07198   -0.00018    0.41564
 12 Cu    0.00882   -0.03705   -0.26688
 13 Cu   -0.00376    0.04332   -0.09983
 14 Cu    0.00121    0.00114   -0.04877
 15 Cu   -0.00815   -0.00678    0.03452
 16 Cu    0.02372    0.03232    0.07471
 17 Cu    0.09247   -0.01730    0.09479
 18 Cu   -0.02648   -0.02189    0.19101
 19 Cu    0.31785    0.36192    1.16538
 20 Cu   -0.01382   -0.01365   -0.13491
 21 Cu   -0.00144   -0.03265   -0.09957
 22 Cu   -0.00796    0.00326   -0.03721
 23 Cu   -0.00566   -0.00013   -0.04737
 24 Cu    0.00341    0.01340    0.04817
 25 Cu   -0.00553    0.00436    0.01393
 26 Cu   -0.01274   -0.01138    0.11282
 27 Cu   -0.03165   -0.01910    0.11459
 28 Cu   -0.05472   -0.00547    0.11356
 29 Cu    0.02495    0.04265   -0.11737
 30 Cu   -0.10114    0.14574    0.08441
 31 Cu    0.01794    0.09136    0.01137
 32 Cu    0.00543    0.01022   -0.13343
 33 Cu   -0.01315   -0.01192   -0.09604
 34 Cu   -0.00228    0.00075   -0.04440
 35 Cu   -0.00418   -0.00440   -0.05280
 36 Cu   -0.00151   -0.00040    0.02659
 37 Cu   -0.00043    0.00106    0.02460
 38 Cu    0.01797   -0.03095    0.10561
 39 Cu    0.01183    0.03231    0.09112
 40 Cu    0.09826   -0.04174   -0.39644
 41 Cu   -0.17416    0.15324   -0.06347
 42 Cu    0.19844   -0.07783    0.50768
 43 Cu    0.07117   -0.03845   -0.05990
 44 Cu   -0.00431    0.01559   -0.13816
 45 Cu    0.00055    0.00250   -0.04383
 46 Cu   -0.00337   -0.00893   -0.06435
 47 Cu    0.00005   -0.00777    0.02335
 48 Cu    0.01855   -0.06087    0.05250
 49 Cu    0.00477    0.06269    0.05655
 50 Cu    0.17047    0.10372   -0.92059
 51 Cu    0.00414   -0.00407    0.07606
 52 Cu    0.00755   -0.00132   -0.05524
 53 Cu   -0.02604    0.00793    0.05728
 54 Cl   -0.02342    0.05544   -0.48578
 55 Cl    0.24676   -0.20112   -0.09696
 56 Cl   -0.44891   -0.24459    0.39265
 57 Cl   -0.11765   -0.84433   -0.15990
 58 Cl   -0.66086    0.37871   -0.10515
 59 Cl   -0.03029    0.42823    0.07844
 60 Cl    0.92475    0.09382    0.04919
 61 Cl    0.05448    0.08235    0.38258
 62 Cl    0.21934   -0.17058    0.04604
 63 Cl   -0.67997   -0.35470   -0.47724
 64 Cl   -0.11014   -0.88447    0.31595
 65 Cl   -0.65950    0.38717   -0.00323
 66 Cl   -0.11209    0.52696   -0.18983
 67 Cl    0.90371    0.01284   -0.09533

System changes: positions 

Initializing position-dependent things.

Density initialized from wave functions
                                      
                                      
                                      
                                      
                 Cl                   
                            Cl        
             Cl      Cl   Cl          
           Cu     CuCl  Cu            
            Cl                        
          Cu   CCu    CCu   Cu        
        Cu    CCu   CCu    Cu         
                                      
           CCu    CCu   CCu           
          Cu   CCu    CCu   Cu        
                                      
        Cu    CCu   CCu    Cu         
           CCu    CCu   CCu           
                                      
          Cu   CCu    CCu   Cu        
        Cu    CCu   CCu    Cu         
                                      
            Cul    Cu   CCu           
         Cl      Cl                   
                      Cl              
         Cl     Cl                    
                                      
                                      
                                      
                                      

Positions:
   0 Cu     1.867343    1.842154    9.875553    ( 0.0000,  0.0000,  0.0000)
   1 Cu     0.579998    0.527363   11.817876    ( 0.0000,  0.0000,  0.0000)
   2 Cu     3.194861    0.535013   11.808018    ( 0.0000,  0.0000,  0.0000)
   3 Cu     1.885842    1.838107   13.694315    ( 0.0000,  0.0000,  0.0000)
   4 Cu     0.575911    0.526193   15.548938    ( 0.0000,  0.0000,  0.0000)
   5 Cu     3.198152    0.520221   15.552731    ( 0.0000,  0.0000,  0.0000)
   6 Cu     1.898058    1.833034   17.411543    ( 0.0000,  0.0000,  0.0000)
   7 Cu     0.573025    0.557025   19.254519    ( 0.0000,  0.0000,  0.0000)
   8 Cu     3.178397    0.520135   19.349709    ( 0.0000,  0.0000,  0.0000)
   9 Cu     0.578204    3.159539   11.806630    ( 0.0000,  0.0000,  0.0000)
  10 Cu     0.573276    3.142601   15.551161    ( 0.0000,  0.0000,  0.0000)
  11 Cu     0.574364    3.152652   19.314814    ( 0.0000,  0.0000,  0.0000)
  12 Cu     7.115701    1.840190    9.919254    ( 0.0000,  0.0000,  0.0000)
  13 Cu     5.792492    0.520006   11.809296    ( 0.0000,  0.0000,  0.0000)
  14 Cu     7.114657    1.831440   13.697157    ( 0.0000,  0.0000,  0.0000)
  15 Cu     5.802356    0.520582   15.549951    ( 0.0000,  0.0000,  0.0000)
  16 Cu     7.098270    1.830341   17.420433    ( 0.0000,  0.0000,  0.0000)
  17 Cu     5.822419    0.521191   19.374172    ( 0.0000,  0.0000,  0.0000)
  18 Cu     4.515281    1.829643    9.877839    ( 0.0000,  0.0000,  0.0000)
  19 Cu     4.538092    4.501726    9.982206    ( 0.0000,  0.0000,  0.0000)
  20 Cu     3.195393    3.149206   11.794260    ( 0.0000,  0.0000,  0.0000)
  21 Cu     5.796942    3.149314   11.822158    ( 0.0000,  0.0000,  0.0000)
  22 Cu     4.498953    1.836403   13.696057    ( 0.0000,  0.0000,  0.0000)
  23 Cu     4.496463    4.448794   13.700825    ( 0.0000,  0.0000,  0.0000)
  24 Cu     3.192357    3.146916   15.554598    ( 0.0000,  0.0000,  0.0000)
  25 Cu     5.808711    3.147194   15.548901    ( 0.0000,  0.0000,  0.0000)
  26 Cu     4.506258    1.839867   17.431792    ( 0.0000,  0.0000,  0.0000)
  27 Cu     4.503388    4.454633   17.450262    ( 0.0000,  0.0000,  0.0000)
  28 Cu     3.189533    3.141323   19.358611    ( 0.0000,  0.0000,  0.0000)
  29 Cu     5.836662    3.140685   19.340147    ( 0.0000,  0.0000,  0.0000)
  30 Cu     1.882041    4.475069    9.832230    ( 0.0000,  0.0000,  0.0000)
  31 Cu     1.882272    7.103622    9.974491    ( 0.0000,  0.0000,  0.0000)
  32 Cu     0.568389    5.755343   11.798490    ( 0.0000,  0.0000,  0.0000)
  33 Cu     3.199917    5.745933   11.812515    ( 0.0000,  0.0000,  0.0000)
  34 Cu     1.883462    4.455069   13.693427    ( 0.0000,  0.0000,  0.0000)
  35 Cu     1.883165    7.068514   13.697361    ( 0.0000,  0.0000,  0.0000)
  36 Cu     0.573901    5.760386   15.552945    ( 0.0000,  0.0000,  0.0000)
  37 Cu     3.193470    5.763728   15.553789    ( 0.0000,  0.0000,  0.0000)
  38 Cu     1.894165    4.469095   17.431201    ( 0.0000,  0.0000,  0.0000)
  39 Cu     1.877172    7.063655   17.437719    ( 0.0000,  0.0000,  0.0000)
  40 Cu     0.590268    5.744347   19.273189    ( 0.0000,  0.0000,  0.0000)
  41 Cu     3.168348    5.810446   19.395381    ( 0.0000,  0.0000,  0.0000)
  42 Cu     7.165996    4.419309    9.941214    ( 0.0000,  0.0000,  0.0000)
  43 Cu     7.108400    7.066777    9.869624    ( 0.0000,  0.0000,  0.0000)
  44 Cu     5.797966    5.749725   11.791650    ( 0.0000,  0.0000,  0.0000)
  45 Cu     7.118406    4.453093   13.692860    ( 0.0000,  0.0000,  0.0000)
  46 Cu     7.114106    7.063996   13.692756    ( 0.0000,  0.0000,  0.0000)
  47 Cu     5.806691    5.755977   15.545053    ( 0.0000,  0.0000,  0.0000)
  48 Cu     7.104638    4.456525   17.419287    ( 0.0000,  0.0000,  0.0000)
  49 Cu     7.108957    7.058942   17.442657    ( 0.0000,  0.0000,  0.0000)
  50 Cu     5.840487    5.791663   19.229312    ( 0.0000,  0.0000,  0.0000)
  51 Cu     4.486888    7.068180    9.902550    ( 0.0000,  0.0000,  0.0000)
  52 Cu     4.503173    7.065628   13.695123    ( 0.0000,  0.0000,  0.0000)
  53 Cu     4.510409    7.054681   17.423939    ( 0.0000,  0.0000,  0.0000)
  54 Cl     2.087637    1.589179   21.036078    ( 0.0000,  0.0000,  0.0000)
  55 Cl     4.863015    1.863318   21.142307    ( 0.0000,  0.0000,  0.0000)
  56 Cl     4.647296    4.981420   20.985820    ( 0.0000,  0.0000,  0.0000)
  57 Cl     1.578103    4.695915   21.091130    ( 0.0000,  0.0000,  0.0000)
  58 Cl     2.575061    7.490336   21.228513    ( 0.0000,  0.0000,  0.0000)
  59 Cl     7.086340    6.756871   20.914295    ( 0.0000,  0.0000,  0.0000)
  60 Cl     7.189932    3.061341   21.337135    ( 0.0000,  0.0000,  0.0000)
  61 Cl     0.900859    0.154995    8.115817    ( 0.0000,  0.0000,  0.0000)
  62 Cl     3.637940    0.453960    8.023315    ( 0.0000,  0.0000,  0.0000)
  63 Cl     3.400327    3.554296    8.275487    ( 0.0000,  0.0000,  0.0000)
  64 Cl     0.335925    3.291250    8.178099    ( 0.0000,  0.0000,  0.0000)
  65 Cl     1.353247    6.076562    8.027074    ( 0.0000,  0.0000,  0.0000)
  66 Cl     5.828951    5.341195    8.289709    ( 0.0000,  0.0000,  0.0000)
  67 Cl     5.928502    1.621237    7.939543    ( 0.0000,  0.0000,  0.0000)

Unit cell:
           periodic     x           y           z      points  spacing
  1. axis:    yes    7.851007    0.000000    0.000000    45     0.1655
  2. axis:    yes    2.617002    7.851007    0.000000    48     0.1636
  3. axis:    yes    0.000000    0.000000   30.683867   175     0.1753

  Lengths:   7.851007   8.275688  30.683867
  Angles:   90.000000  90.000000  71.565053

Effective grid spacing dv^(1/3) = 0.1710

     iter     time        total  log10-change:
                         energy  eigst   dens
iter:   1 17:27:38 -4609.782190  -1.37
iter:   2 17:28:57 -4618.346085  -1.27  -1.57
iter:   3 17:30:15 -4604.443333  -1.59  -1.59
iter:   4 17:31:33 -4596.442885  -2.47  -1.84
iter:   5 17:32:51 -4595.819722  -3.32  -2.13
iter:   6 17:34:10 -4595.555456  -3.54  -2.26
iter:   7 17:35:28 -4595.465745  -3.12  -2.35
iter:   8 17:36:46 -4595.469192c -4.56  -2.39
iter:   9 17:38:04 -4595.245137c -4.19  -2.39
iter:  10 17:39:22 -4595.257493c -3.73  -2.53
iter:  11 17:40:41 -4595.128941c -3.96  -2.52
iter:  12 17:42:00 -4595.115163c -4.14  -2.83
iter:  13 17:43:19 -4595.123339c -4.68  -3.01
iter:  14 17:44:38 -4595.109644c -4.55  -2.92
iter:  15 17:45:57 -4595.111987c -5.22  -3.27
iter:  16 17:47:16 -4595.111011c -5.83  -3.22
iter:  17 17:48:35 -4595.108024c -5.07  -3.27
iter:  18 17:49:54 -4595.106865c -5.85  -3.53
iter:  19 17:51:12 -4595.106890c -6.46  -3.71
iter:  20 17:52:31 -4595.107005c -5.59  -3.77
iter:  21 17:53:50 -4595.106726c -6.23  -4.02c
iter:  22 17:55:09 -4595.106641c -6.93  -4.19c
iter:  23 17:56:27 -4595.106630c -6.79  -4.26c
iter:  24 17:57:46 -4595.106637c -7.78c -4.38c

Converged after 24 iterations.

Dipole moment: (-15.515360, -36.093948, -0.031437) |e|*Ang

Energy contributions relative to reference atoms: (reference = -2606927.690960)

Kinetic:       +573.169905
Potential:     -587.226093
External:        +0.000000
XC:            -4579.843001
Entropy (-ST):   -0.767445
Local:           -0.823726
--------------------------
Free energy:   -4595.490359
Extrapolated:  -4595.106637

Showing only first 2 kpts
 Kpt  Band  Eigenvalues  Occupancy
  0   344     -0.37544    1.88307
  0   345     -0.26920    1.69539
  0   346     -0.22710    1.57019
  0   347     -0.02944    0.67211

  1   344     -0.05627    0.79655
  1   345     -0.00811    0.58045
  1   346      0.04024    0.40274
  1   347      0.07616    0.29939


Fermi level: -0.09754

No gap

Forces in eV/Ang:
  0 Cu    0.00380   -0.03408    0.00267
  1 Cu   -0.02116    0.04849   -0.04411
  2 Cu   -0.02195   -0.00365   -0.09543
  3 Cu    0.00663    0.00674   -0.07025
  4 Cu    0.00311    0.00366    0.04360
  5 Cu   -0.00623    0.01030    0.04022
  6 Cu   -0.05637    0.04766    0.09417
  7 Cu    0.02359    0.05382   -0.06545
  8 Cu    0.17752   -0.14923   -0.34214
  9 Cu    0.04558   -0.10345    0.00594
 10 Cu    0.01242    0.00201    0.03713
 11 Cu   -0.00868   -0.02435    0.01795
 12 Cu    0.02165   -0.06967    0.13992
 13 Cu    0.02968    0.05381   -0.06107
 14 Cu    0.00432    0.00284   -0.05730
 15 Cu    0.00684    0.00823    0.04863
 16 Cu    0.07088    0.03470    0.07921
 17 Cu    0.15038   -0.08340    0.01483
 18 Cu   -0.04886    0.11482    0.18397
 19 Cu   -0.08903   -0.13149    0.52896
 20 Cu   -0.06639   -0.05081   -0.04228
 21 Cu    0.05759   -0.12654    0.01548
 22 Cu   -0.01185   -0.00207   -0.04932
 23 Cu   -0.00555   -0.00290   -0.06684
 24 Cu   -0.00024    0.00340    0.05864
 25 Cu   -0.00917   -0.00765    0.02338
 26 Cu   -0.01441   -0.00969    0.07802
 27 Cu   -0.08888   -0.05994    0.01842
 28 Cu    0.03314    0.08024    0.00105
 29 Cu    0.00018    0.11659   -0.06908
 30 Cu    0.01161    0.21523    0.15219
 31 Cu    0.02853    0.01635    0.02614
 32 Cu    0.03714    0.06547   -0.02670
 33 Cu   -0.09764    0.07282    0.04269
 34 Cu   -0.00332   -0.00302   -0.05711
 35 Cu   -0.00499   -0.00033   -0.07348
 36 Cu    0.00403   -0.00146    0.04422
 37 Cu   -0.00763   -0.00402    0.03059
 38 Cu    0.01106   -0.10926    0.04691
 39 Cu    0.04071    0.08747    0.01210
 40 Cu    0.01481    0.06717   -0.22917
 41 Cu   -0.05562    0.10531   -0.05578
 42 Cu   -0.06471    0.16840    0.36232
 43 Cu    0.15906   -0.14486    0.05212
 44 Cu    0.11155    0.14578    0.10831
 45 Cu    0.00058   -0.00028   -0.06342
 46 Cu   -0.00052    0.00228   -0.08489
 47 Cu    0.00051   -0.00666    0.04278
 48 Cu    0.08337   -0.15031   -0.04940
 49 Cu    0.08492    0.16845   -0.13508
 50 Cu   -0.16562   -0.18298   -0.32155
 51 Cu    0.17452   -0.12643    0.43087
 52 Cu    0.00388    0.00772   -0.07137
 53 Cu   -0.10603    0.09391   -0.03734
 54 Cl   -0.07234    0.12700   -0.13827
 55 Cl    0.13330   -0.08683    0.04486
 56 Cl   -0.29063   -0.32493    0.15940
 57 Cl    0.24333   -0.32631   -0.11067
 58 Cl   -0.68654    0.09180   -0.03742
 59 Cl    0.10201    0.27141    0.12260
 60 Cl    0.35697    0.16230    0.26941
 61 Cl   -0.11740    0.21447   -0.00939
 62 Cl    0.02346   -0.12941   -0.15208
 63 Cl   -0.35525   -0.39419   -0.20312
 64 Cl    0.19992   -0.48187    0.06794
 65 Cl   -0.64795    0.17279    0.01314
 66 Cl    0.14087    0.36872   -0.20844
 67 Cl    0.51282    0.14597   -0.41088

System changes: positions 

Initializing position-dependent things.

Density initialized from wave functions
                                      
                                      
                                      
                                      
                 Cl                   
                            Cl        
             Cl      Cl   Cl          
           Cu     CuCl  Cu            
            Cl                        
          Cu   CCu    CCu   Cu        
        Cu    Cu    CCu    Cu         
                                      
           CCu    CCu   CCu           
          Cu   CCu    CCu   Cu        
                                      
        Cu    Cu    CCu    Cu         
           CCu    Cu    CCu           
                                      
          Cu   CCu    Cu    Cu        
        Cu    Cu    CCu    Cu         
                                      
            Cul    Cu   CCu           
         Cl      Cl                   
                      Cl              
         Cl     Cl                    
                                      
                                      
                                      
                                      

Positions:
   0 Cu     1.861356    1.836360    9.849033    ( 0.0000,  0.0000,  0.0000)
   1 Cu     0.578522    0.535316   11.805099    ( 0.0000,  0.0000,  0.0000)
   2 Cu     3.192062    0.536347   11.783181    ( 0.0000,  0.0000,  0.0000)
   3 Cu     1.887482    1.840212   13.681366    ( 0.0000,  0.0000,  0.0000)
   4 Cu     0.576735    0.526581   15.555450    ( 0.0000,  0.0000,  0.0000)
   5 Cu     3.198695    0.520524   15.558859    ( 0.0000,  0.0000,  0.0000)
   6 Cu     1.893432    1.840440   17.427370    ( 0.0000,  0.0000,  0.0000)
   7 Cu     0.576410    0.569605   19.262279    ( 0.0000,  0.0000,  0.0000)
   8 Cu     3.201842    0.500021   19.316701    ( 0.0000,  0.0000,  0.0000)
   9 Cu     0.586348    3.147933   11.798332    ( 0.0000,  0.0000,  0.0000)
  10 Cu     0.574978    3.143063   15.557102    ( 0.0000,  0.0000,  0.0000)
  11 Cu     0.565407    3.150769   19.366537    ( 0.0000,  0.0000,  0.0000)
  12 Cu     7.116832    1.828976    9.899075    ( 0.0000,  0.0000,  0.0000)
  13 Cu     5.793505    0.528653   11.792568    ( 0.0000,  0.0000,  0.0000)
  14 Cu     7.114958    1.831453   13.686846    ( 0.0000,  0.0000,  0.0000)
  15 Cu     5.802000    0.520667   15.557252    ( 0.0000,  0.0000,  0.0000)
  16 Cu     7.105435    1.836416   17.435494    ( 0.0000,  0.0000,  0.0000)
  17 Cu     5.848717    0.508804   19.399335    ( 0.0000,  0.0000,  0.0000)
  18 Cu     4.510047    1.844982    9.887834    ( 0.0000,  0.0000,  0.0000)
  19 Cu     4.534597    4.496303   10.076160    ( 0.0000,  0.0000,  0.0000)
  20 Cu     3.186343    3.142722   11.775488    ( 0.0000,  0.0000,  0.0000)
  21 Cu     5.803104    3.131332   11.818434    ( 0.0000,  0.0000,  0.0000)
  22 Cu     4.496722    1.836476   13.687365    ( 0.0000,  0.0000,  0.0000)
  23 Cu     4.494959    4.448176   13.689653    ( 0.0000,  0.0000,  0.0000)
  24 Cu     3.192657    3.148689   15.564626    ( 0.0000,  0.0000,  0.0000)
  25 Cu     5.807142    3.146881   15.551698    ( 0.0000,  0.0000,  0.0000)
  26 Cu     4.504924    1.839089   17.451738    ( 0.0000,  0.0000,  0.0000)
  27 Cu     4.490505    4.446025   17.464222    ( 0.0000,  0.0000,  0.0000)
  28 Cu     3.190809    3.151872   19.382762    ( 0.0000,  0.0000,  0.0000)
  29 Cu     5.841228    3.158273   19.338404    ( 0.0000,  0.0000,  0.0000)
  30 Cu     1.881318    4.511095    9.829127    ( 0.0000,  0.0000,  0.0000)
  31 Cu     1.888111    7.117838    9.972944    ( 0.0000,  0.0000,  0.0000)
  32 Cu     0.572933    5.763808   11.783123    ( 0.0000,  0.0000,  0.0000)
  33 Cu     3.186118    5.753350   11.810823    ( 0.0000,  0.0000,  0.0000)
  34 Cu     1.882861    4.455295   13.682996    ( 0.0000,  0.0000,  0.0000)
  35 Cu     1.882293    7.068377   13.684928    ( 0.0000,  0.0000,  0.0000)
  36 Cu     0.574326    5.760370   15.559964    ( 0.0000,  0.0000,  0.0000)
  37 Cu     3.192620    5.763896   15.558594    ( 0.0000,  0.0000,  0.0000)
[...]
 26 Cu   -0.00665    0.00014   -0.00002
 27 Cu   -0.00737   -0.00317    0.00672
 28 Cu    0.00828   -0.00540   -0.00603
 29 Cu    0.00601    0.01085   -0.00664
 30 Cu   -0.00382    0.01318   -0.01198
 31 Cu    0.00227   -0.00949    0.00210
 32 Cu    0.00466   -0.00380   -0.01668
 33 Cu    0.02022    0.00838    0.00604
 34 Cu    0.00891   -0.00153   -0.00266
 35 Cu   -0.00752   -0.00605   -0.00750
 36 Cu   -0.00025   -0.00773   -0.00782
 37 Cu    0.00179   -0.00372   -0.00632
 38 Cu    0.01512    0.00149   -0.00494
 39 Cu   -0.00895    0.00413    0.01346
 40 Cu    0.01037    0.00579   -0.01135
 41 Cu    0.00169    0.00159   -0.00328
 42 Cu    0.01787    0.01003   -0.00232
 43 Cu    0.00116   -0.00778   -0.01964
 44 Cu    0.00669    0.02002   -0.00695
 45 Cu   -0.00295   -0.00186    0.00003
 46 Cu    0.00349   -0.00093   -0.00531
 47 Cu   -0.00351    0.00251   -0.00069
 48 Cu   -0.00824   -0.00598    0.00989
 49 Cu   -0.00049    0.00939   -0.00403
 50 Cu    0.00429   -0.01630   -0.01182
 51 Cu    0.00442    0.01384   -0.02060
 52 Cu    0.00392    0.01119    0.00613
 53 Cu   -0.00850   -0.01051    0.00306
 54 Cl   -0.01033    0.00225    0.00463
 55 Cl   -0.03746   -0.00933    0.01328
 56 Cl    0.00462   -0.01063    0.01050
 57 Cl   -0.01077   -0.00083   -0.00859
 58 Cl   -0.00308   -0.00690    0.01232
 59 Cl   -0.00267    0.00290    0.02416
 60 Cl   -0.00084   -0.00832   -0.00084
 61 Cl   -0.00967   -0.01006   -0.00399
 62 Cl    0.02435   -0.00268    0.03068
 63 Cl   -0.03787    0.02095    0.02279
 64 Cl    0.04384    0.01177    0.00539
 65 Cl   -0.01186   -0.02009    0.00604
 66 Cl   -0.01295   -0.00795    0.00036
 67 Cl   -0.02930   -0.04492   -0.01874

System changes: positions 

Initializing position-dependent things.

Density initialized from wave functions
                                          
                                          
                                          
                                          
                    Cl                    
                         Cl     Cl        
                  Cl          Cl          
               Cu     CCl   Cu            
                Cl                        
              Cu   CCu    CCu   Cu        
            Cu    CCu   CCu    Cu         
                                          
               CCu    CCu   CCu           
              Cu   CCu    CCu   Cu        
                                          
            Cu    CCu   CCu    Cu         
               CCu    CCu   CCu           
                                          
              Cu   CCu    CCu   Cu        
            Cu    CCu   CCu    Cu         
                            Cl            
                Cul    Cu    Cu           
         Cl         Cl                    
                                          
             Cl                           
                                          
                        Cl                
                                          
                    Cl                    
                                          
                                          
                                          
                                          

Positions:
   0 Cu     1.961379    1.837462   10.096880    ( 0.0000,  0.0000,  0.0000)
   1 Cu     0.631051    0.523315   11.931167    ( 0.0000,  0.0000,  0.0000)
   2 Cu     3.278316    0.526454   11.915930    ( 0.0000,  0.0000,  0.0000)
   3 Cu     1.960493    1.837186   13.758423    ( 0.0000,  0.0000,  0.0000)
   4 Cu     0.642131    0.529627   15.589513    ( 0.0000,  0.0000,  0.0000)
   5 Cu     3.258076    0.528887   15.622026    ( 0.0000,  0.0000,  0.0000)
   6 Cu     1.927362    1.822809   17.486513    ( 0.0000,  0.0000,  0.0000)
   7 Cu     0.608018    0.513968   19.426477    ( 0.0000,  0.0000,  0.0000)
   8 Cu     3.212054    0.533013   19.352657    ( 0.0000,  0.0000,  0.0000)
   9 Cu     0.650802    3.154649   11.917717    ( 0.0000,  0.0000,  0.0000)
  10 Cu     0.641497    3.128065   15.607542    ( 0.0000,  0.0000,  0.0000)
  11 Cu     0.614548    3.083738   19.407740    ( 0.0000,  0.0000,  0.0000)
  12 Cu     7.181095    1.809777   10.080575    ( 0.0000,  0.0000,  0.0000)
  13 Cu     5.851869    0.522209   11.889629    ( 0.0000,  0.0000,  0.0000)
  14 Cu     7.177786    1.831660   13.756486    ( 0.0000,  0.0000,  0.0000)
  15 Cu     5.874549    0.529271   15.615383    ( 0.0000,  0.0000,  0.0000)
  16 Cu     7.194876    1.823229   17.489570    ( 0.0000,  0.0000,  0.0000)
  17 Cu     5.917239    0.549662   19.398792    ( 0.0000,  0.0000,  0.0000)
  18 Cu     4.608074    1.817228   10.039898    ( 0.0000,  0.0000,  0.0000)
  19 Cu     4.607079    4.485309    9.980232    ( 0.0000,  0.0000,  0.0000)
  20 Cu     3.277383    3.162354   11.913232    ( 0.0000,  0.0000,  0.0000)
  21 Cu     5.894168    3.157181   11.897562    ( 0.0000,  0.0000,  0.0000)
  22 Cu     4.568727    1.839325   13.770603    ( 0.0000,  0.0000,  0.0000)
  23 Cu     4.571237    4.439013   13.783020    ( 0.0000,  0.0000,  0.0000)
  24 Cu     3.257849    3.135917   15.632502    ( 0.0000,  0.0000,  0.0000)
  25 Cu     5.883880    3.131819   15.611301    ( 0.0000,  0.0000,  0.0000)
  26 Cu     4.589498    1.830899   17.480425    ( 0.0000,  0.0000,  0.0000)
  27 Cu     4.581378    4.458260   17.447912    ( 0.0000,  0.0000,  0.0000)
  28 Cu     3.279683    3.158525   19.248759    ( 0.0000,  0.0000,  0.0000)
  29 Cu     5.955591    3.179328   19.347113    ( 0.0000,  0.0000,  0.0000)
  30 Cu     1.989866    4.445724   10.071079    ( 0.0000,  0.0000,  0.0000)
  31 Cu     1.914087    7.079059   10.062522    ( 0.0000,  0.0000,  0.0000)
  32 Cu     0.628178    5.741964   11.899779    ( 0.0000,  0.0000,  0.0000)
  33 Cu     3.261656    5.747828   11.929776    ( 0.0000,  0.0000,  0.0000)
  34 Cu     1.949898    4.454112   13.785872    ( 0.0000,  0.0000,  0.0000)
  35 Cu     1.934400    7.064742   13.763513    ( 0.0000,  0.0000,  0.0000)
  36 Cu     0.643749    5.763553   15.640903    ( 0.0000,  0.0000,  0.0000)
  37 Cu     3.260408    5.772443   15.607181    ( 0.0000,  0.0000,  0.0000)
  38 Cu     1.956598    4.444568   17.445633    ( 0.0000,  0.0000,  0.0000)
  39 Cu     1.970790    7.094002   17.470150    ( 0.0000,  0.0000,  0.0000)
  40 Cu     0.644890    5.750761   19.202629    ( 0.0000,  0.0000,  0.0000)
  41 Cu     3.303881    5.824329   19.347617    ( 0.0000,  0.0000,  0.0000)
  42 Cu     7.239000    4.426141    9.966655    ( 0.0000,  0.0000,  0.0000)
  43 Cu     7.169924    7.085295   10.036295    ( 0.0000,  0.0000,  0.0000)
  44 Cu     5.873399    5.730766   11.905046    ( 0.0000,  0.0000,  0.0000)
  45 Cu     7.189109    4.458009   13.778272    ( 0.0000,  0.0000,  0.0000)
  46 Cu     7.185204    7.059900   13.773665    ( 0.0000,  0.0000,  0.0000)
  47 Cu     5.873615    5.765667   15.613214    ( 0.0000,  0.0000,  0.0000)
  48 Cu     7.177898    4.432082   17.455571    ( 0.0000,  0.0000,  0.0000)
  49 Cu     7.166152    7.080952   17.467193    ( 0.0000,  0.0000,  0.0000)
  50 Cu     5.806715    5.713319   19.327359    ( 0.0000,  0.0000,  0.0000)
  51 Cu     4.533638    7.071432   10.131669    ( 0.0000,  0.0000,  0.0000)
  52 Cu     4.575570    7.067740   13.761612    ( 0.0000,  0.0000,  0.0000)
  53 Cu     4.556437    7.087119   17.475173    ( 0.0000,  0.0000,  0.0000)
  54 Cl     1.919062    1.246898   21.202645    ( 0.0000,  0.0000,  0.0000)
  55 Cl     4.596663    2.217699   20.937111    ( 0.0000,  0.0000,  0.0000)
  56 Cl     4.572749    5.659776   21.345421    ( 0.0000,  0.0000,  0.0000)
  57 Cl     1.962784    4.517676   20.764785    ( 0.0000,  0.0000,  0.0000)
  58 Cl     1.952636    7.854103   21.351623    ( 0.0000,  0.0000,  0.0000)
  59 Cl     7.179010    6.848862   20.803893    ( 0.0000,  0.0000,  0.0000)
  60 Cl     7.170706    3.494908   21.361849    ( 0.0000,  0.0000,  0.0000)
  61 Cl     0.742695    0.537669    8.439457    ( 0.0000,  0.0000,  0.0000)
  62 Cl     4.005040   -0.225739    4.809699    ( 0.0000,  0.0000,  0.0000)
  63 Cl     3.245993    3.006900    8.409192    ( 0.0000,  0.0000,  0.0000)
  64 Cl    -1.345713    2.998583    8.203642    ( 0.0000,  0.0000,  0.0000)
  65 Cl     1.150131    5.737841    8.289651    ( 0.0000,  0.0000,  0.0000)
  66 Cl     5.737703    6.158276    8.340845    ( 0.0000,  0.0000,  0.0000)
  67 Cl     5.220498    0.913767    5.949863    ( 0.0000,  0.0000,  0.0000)

Unit cell:
           periodic     x           y           z      points  spacing
  1. axis:    yes    7.851007    0.000000    0.000000    45     0.1655
  2. axis:    yes    2.617002    7.851007    0.000000    48     0.1636
  3. axis:    yes    0.000000    0.000000   30.683867   175     0.1753

  Lengths:   7.851007   8.275688  30.683867
  Angles:   90.000000  90.000000  71.565053

Effective grid spacing dv^(1/3) = 0.1710

     iter     time        total  log10-change:
                         energy  eigst   dens
iter:   1 17:37:34 -4597.721027  -3.86
iter:   2 17:38:51 -4597.718345  -4.54  -3.13
iter:   3 17:40:08 -4597.713239c -5.67  -3.48
iter:   4 17:41:25 -4597.715732c -5.78  -3.58
iter:   5 17:42:42 -4597.712109c -5.45  -3.59
iter:   6 17:44:00 -4597.713082c -6.07  -3.79
iter:   7 17:45:17 -4597.712970c -6.78  -4.10c
iter:   8 17:46:35 -4597.713030c -6.99  -4.23c
iter:   9 17:47:53 -4597.713076c -6.91  -4.34c
iter:  10 17:49:10 -4597.712719c -7.42c -4.44c

Converged after 10 iterations.

Dipole moment: (-14.673480, -23.271697, -0.332940) |e|*Ang

Energy contributions relative to reference atoms: (reference = -2606927.690960)

Kinetic:       +552.918006
Potential:     -572.634598
External:        +0.000000
XC:            -4576.929891
Entropy (-ST):   -0.659173
Local:           -0.736650
--------------------------
Free energy:   -4598.042306
Extrapolated:  -4597.712719

Showing only first 2 kpts
 Kpt  Band  Eigenvalues  Occupancy
  0   344     -0.38190    1.89683
  0   345     -0.32977    1.83216
  0   346     -0.24771    1.65547
  0   347     -0.05236    0.81038

  1   344     -0.16274    1.34520
  1   345     -0.08296    0.96110
  1   346     -0.05004    0.79922
  1   347      0.13200    0.19463


Fermi level: -0.09075

No gap

Forces in eV/Ang:
  0 Cu   -0.00019   -0.00123    0.00124
  1 Cu   -0.00521    0.00556    0.00549
  2 Cu   -0.00149    0.00069   -0.00177
  3 Cu    0.00468    0.00216   -0.00293
  4 Cu    0.00161   -0.00229    0.00135
  5 Cu   -0.00044    0.00219    0.00033
  6 Cu    0.00155    0.00743    0.00284
  7 Cu    0.00544    0.00338    0.00162
  8 Cu   -0.00224    0.00101   -0.00516
  9 Cu   -0.00663    0.00186    0.00323
 10 Cu    0.00205    0.00334    0.00301
 11 Cu    0.00691   -0.00751   -0.00824
 12 Cu   -0.01011    0.00217   -0.00248
 13 Cu   -0.00590   -0.00208   -0.00247
 14 Cu    0.00113   -0.00142    0.00519
 15 Cu    0.00390    0.00205    0.00118
 16 Cu    0.00197   -0.00125   -0.00035
 17 Cu    0.00729    0.00638    0.00443
 18 Cu   -0.01162   -0.00106    0.00930
 19 Cu    0.00578    0.00560    0.01085
 20 Cu    0.00215    0.00066    0.00068
 21 Cu    0.00140   -0.00042    0.00150
 22 Cu    0.00641   -0.00169    0.00704
 23 Cu    0.00438    0.00174   -0.00461
 24 Cu    0.00911   -0.00068    0.00282
 25 Cu   -0.00048    0.00412    0.00456
 26 Cu   -0.00134   -0.00064    0.00035
 27 Cu   -0.00240   -0.00254    0.00304
 28 Cu    0.00522   -0.00157   -0.00807
 29 Cu   -0.00012    0.00142   -0.00325
 30 Cu    0.00025    0.00829   -0.00059
 31 Cu   -0.00005   -0.00498    0.00630
 32 Cu    0.00393    0.00052   -0.00559
 33 Cu    0.00523    0.00522    0.00427
 34 Cu    0.00385   -0.00051   -0.00500
 35 Cu   -0.00473   -0.00061   -0.00856
 36 Cu    0.00113   -0.00272   -0.00241
 37 Cu    0.00187   -0.00215   -0.00199
 38 Cu    0.00963   -0.00112    0.00214
 39 Cu   -0.00264    0.00345    0.00770
 40 Cu    0.00366    0.00590   -0.00493
 41 Cu    0.00244   -0.00209   -0.00100
 42 Cu    0.01178    0.00663    0.00352
 43 Cu   -0.00203    0.00030   -0.00164
 44 Cu    0.00199    0.01005    0.00227
 45 Cu   -0.00084    0.00079   -0.00231
 46 Cu    0.00071    0.00063   -0.00487
 47 Cu   -0.00113   -0.00095    0.00310
 48 Cu   -0.00208   -0.00301    0.00527
 49 Cu   -0.00020    0.00401   -0.00010
 50 Cu    0.00292   -0.00797   -0.00747
 51 Cu    0.00066    0.00330   -0.00631
 52 Cu    0.00191    0.00655   -0.00003
 53 Cu   -0.00338   -0.00461    0.00559
 54 Cl   -0.01233   -0.00459    0.00535
 55 Cl   -0.02210    0.00330   -0.00200
 56 Cl   -0.00161   -0.00962    0.00163
 57 Cl    0.00111    0.00166   -0.01366
 58 Cl    0.00379   -0.00094    0.00228
 59 Cl    0.00125    0.00003    0.00663
 60 Cl   -0.00792   -0.00909   -0.00037
 61 Cl   -0.00578   -0.00376   -0.00226
 62 Cl   -0.00242   -0.02550    0.00225
 63 Cl   -0.01100    0.00947    0.00570
 64 Cl    0.01642    0.00966    0.00069
 65 Cl   -0.00537   -0.01157   -0.00091
 66 Cl   -0.01341    0.00149   -0.01183
 67 Cl   -0.00448   -0.00734   -0.00120

Timing:                                      incl.     excl.
-------------------------------------------------------------------
Density initialized from wave functions:   439.931   439.927   0.4% |
 Symmetrize density:                         0.004     0.004   0.0% |
Forces:                                   2172.740  2172.740   2.2% ||
Hamiltonian:                               670.301     1.265   0.0% |
 Atomic:                                    30.648     7.036   0.0% |
  XC Correction:                            23.613    23.613   0.0% |
 Calculate atomic Hamiltonians:            182.469   182.469   0.2% |
 Communicate:                                3.771     3.771   0.0% |
 Initialize Hamiltonian:                     0.001     0.001   0.0% |
 Poisson:                                    0.513     0.513   0.0% |
 XC 3D grid:                               451.634    63.667   0.1% |
  VdW-DF integral:                         387.967    14.046   0.0% |
   Convolution:                             25.919    25.919   0.0% |
   FFT:                                     12.762    12.762   0.0% |
   gather:                                 140.704   140.704   0.1% |
   hmm1:                                    16.277    16.277   0.0% |
   hmm2:                                    16.568    16.568   0.0% |
   iFFT:                                    11.967    11.967   0.0% |
   potential:                              142.524     1.160   0.0% |
    collect:                                16.516    16.516   0.0% |
    p1:                                     72.321    72.321   0.1% |
    p2:                                     25.693    25.693   0.0% |
    sum:                                    26.833    26.833   0.0% |
   splines:                                  7.199     7.199   0.0% |
LCAO initialization:                       285.643     0.649   0.0% |
 LCAO eigensolver:                          17.198     0.002   0.0% |
  Blacs Orbital Layouts:                     1.091     0.001   0.0% |
   General diagonalize:                      1.080     1.080   0.0% |
   Redistribute coefs:                       0.006     0.006   0.0% |
   Send coefs to domains:                    0.004     0.004   0.0% |
  Calculate projections:                     0.007     0.007   0.0% |
  Distribute overlap matrix:                15.632     0.001   0.0% |
   Scalapack redistribute:                   0.013     0.013   0.0% |
   blocked summation:                       15.618    15.618   0.0% |
  Potential matrix:                          0.331     0.331   0.0% |
  SparseAtomicCorrection:                    0.013     0.013   0.0% |
  Sum over cells:                            0.122     0.122   0.0% |
 LCAO to grid:                             264.006   264.006   0.3% |
 Set positions (LCAO WFS):                   3.790     0.013   0.0% |
  Basic WFS set positions:                   0.005     0.005   0.0% |
  Basis functions set positions:             0.001     0.001   0.0% |
  P tci:                                     0.000     0.000   0.0% |
  ST tci:                                    0.647     0.647   0.0% |
  Scalapack redistribute:                    0.016     0.016   0.0% |
  blocked summation:                         2.828     2.828   0.0% |
  mktci:                                     0.279     0.279   0.0% |
PWDescriptor:                                0.761     0.761   0.0% |
Redistribute:                                0.195     0.195   0.0% |
SCF-cycle:                               94571.838  2233.576   2.3% ||
 Davidson:                               74297.964 21167.983  21.4% |--------|
  Apply H:                                6125.645  6013.387   6.1% |-|
   HMM T:                                  112.258   112.258   0.1% |
  Subspace diag:                         11998.420     0.251   0.0% |
   calc_h_matrix:                         8242.518  2124.184   2.2% ||
    Apply H:                              6118.334  5993.728   6.1% |-|
     HMM T:                                124.606   124.606   0.1% |
   diagonalize:                            302.249   302.249   0.3% |
   rotate_psi:                            3453.402  3453.402   3.5% ||
  calc. matrices:                        26238.553 14290.546  14.5% |-----|
   Apply H:                              11948.008 11724.171  11.9% |----|
    HMM T:                                 223.836   223.836   0.2% |
  diagonalize:                            1980.264  1980.264   2.0% ||
  rotate_psi:                             6787.100  6787.100   6.9% |--|
 Density:                                 7081.274     0.082   0.0% |
  Atomic density matrices:                  23.434    23.434   0.0% |
  Mix:                                    3684.385  3684.385   3.7% ||
  Multipole moments:                         1.903     1.903   0.0% |
  Pseudo density:                         3371.470  3371.405   3.4% ||
   Symmetrize density:                       0.065     0.065   0.0% |
 Hamiltonian:                            10501.176    20.829   0.0% |
  Atomic:                                  499.341   111.519   0.1% |
   XC Correction:                          387.822   387.822   0.4% |
  Calculate atomic Hamiltonians:          2979.261  2979.261   3.0% ||
  Communicate:                              70.101    70.101   0.1% |
  Poisson:                                   8.358     8.358   0.0% |
  XC 3D grid:                             6923.287  1018.230   1.0% |
   VdW-DF integral:                       5905.057   229.386   0.2% |
    Convolution:                           422.800   422.800   0.4% |
    FFT:                                   204.663   204.663   0.2% |
    gather:                               1983.585  1983.585   2.0% ||
    hmm1:                                  271.548   271.548   0.3% |
    hmm2:                                  275.912   275.912   0.3% |
    iFFT:                                  195.449   195.449   0.2% |
    potential:                            2321.695    19.347   0.0% |
     collect:                              268.067   268.067   0.3% |
     p1:                                  1186.328  1186.328   1.2% |
     p2:                                   419.043   419.043   0.4% |
     sum:                                  428.909   428.909   0.4% |
    splines:                                 0.019     0.019   0.0% |
 Orthonormalize:                           457.849     0.027   0.0% |
  calc_s_matrix:                            59.970    59.970   0.1% |
  inverse-cholesky:                         13.034    13.034   0.0% |
  projections:                             285.824   285.824   0.3% |
  rotate_psi_s:                             98.995    98.995   0.1% |
Set symmetry:                                0.002     0.002   0.0% |
Other:                                     612.060   612.060   0.6% |
-------------------------------------------------------------------
Total:                                             98753.471 100.0%

Memory usage: 1.39 GiB
Date: Sat Apr  1 17:49:41 2023
