
  ___ ___ ___ _ _ _  
 |   |   |_  | | | | 
 | | | | | . | | | | 
 |__ |  _|___|_____|  22.1.0
 |___|_|             

User:   thorkong@node043.cluster
Date:   Mon Oct 17 14:48:51 2022
Arch:   x86_64
Pid:    17665
Python: 3.10.5
gpaw:   /groups/kemi/thorkong/miniconda3/envs/gpaw22/lib/python3.10/site-packages/gpaw
_gpaw:  /groups/kemi/thorkong/miniconda3/envs/gpaw22/lib/python3.10/site-packages/
        _gpaw.cpython-310-x86_64-linux-gnu.so
ase:    /groups/kemi/thorkong/miniconda3/envs/gpaw22/lib/python3.10/site-packages/ase (version 3.22.1)
numpy:  /groups/kemi/thorkong/miniconda3/envs/gpaw22/lib/python3.10/site-packages/numpy (version 1.23.0)
scipy:  /groups/kemi/thorkong/miniconda3/envs/gpaw22/lib/python3.10/site-packages/scipy (version 1.8.1)
libxc:  5.2.3
units:  Angstrom and eV
cores: 32
OpenMP: True
OMP_NUM_THREADS: 1

Input parameters:
  basis: dzp
  kpts: [4 4 1]
  mode: {ecut: 600.0,
         name: pw}
  xc: BEEF-vdW

System changes: positions, numbers, cell, pbc, initial_charges, initial_magmoms 

Initialize ...

Cu-setup:
  name: Copper
  id: f1c4d45d90492f1bbfdcb091e8418fdf
  Z: 29.0
  valence: 11
  core: 18
  charge: 0.0
  file: /groups/kemi/thorkong/miniconda3/envs/gpaw22/share/gpaw/Cu.PBE.gz
  compensation charges: gauss, rc=0.33, lmax=2
  cutoffs: 2.06(filt), 2.43(core),
  valence states:
                energy  radius
    4s(1.00)    -4.609   1.164
    4p(0.00)    -0.698   1.164
    3d(10.00)    -5.039   1.058
    *s          22.603   1.164
    *p          26.513   1.164
    *d          22.172   1.058

  LCAO basis set for Cu:
    Name: dzp
    File: /groups/kemi/thorkong/miniconda3/envs/gpaw22/share/gpaw/Cu.dzp.basis.gz
    Number of radial functions: 5
    Number of spherical harmonics: 15
      l=0, rc=8.9688 Bohr: 4s-sz confined orbital
      l=2, rc=5.1719 Bohr: 3d-sz confined orbital
      l=0, rc=5.3281 Bohr: 4s-dz split-valence wave
      l=2, rc=3.1406 Bohr: 3d-dz split-valence wave
      l=1, rc=8.9688 Bohr: p-type Gaussian polarization

Cl-setup:
  name: Chlorine
  id: 726897f06f34e53cf8e33b5885a02604
  Z: 17.0
  valence: 7
  core: 10
  charge: 0.0
  file: /groups/kemi/thorkong/miniconda3/envs/gpaw22/share/gpaw/Cl.PBE.gz
  compensation charges: gauss, rc=0.25, lmax=2
  cutoffs: 1.40(filt), 1.49(core),
  valence states:
                energy  radius
    3s(2.00)   -20.689   0.794
    3p(5.00)    -8.594   0.794
    *s           6.523   0.794
    *p          18.617   0.794
    *d           0.000   0.794

  LCAO basis set for Cl:
    Name: dzp
    File: /groups/kemi/thorkong/miniconda3/envs/gpaw22/share/gpaw/Cl.dzp.basis.gz
    Number of radial functions: 5
    Number of spherical harmonics: 13
      l=0, rc=5.1719 Bohr: 3s-sz confined orbital
      l=1, rc=6.2656 Bohr: 3p-sz confined orbital
      l=0, rc=2.8281 Bohr: 3s-dz split-valence wave
      l=1, rc=3.5156 Bohr: 3p-dz split-valence wave
      l=2, rc=6.2656 Bohr: d-type Gaussian polarization

Reference energy: -2632037.589752

Spin-paired calculation

Convergence criteria:
 Maximum [total energy] change in last 3 cyles: 0.0005 eV / electron
 Maximum integral of absolute [dens]ity change: 0.0001 electrons / valence electron
 Maximum integral of absolute [eigenst]ate change: 4e-08 eV^2 / valence electron
 Maximum number of scf [iter]ations: 333
 (Square brackets indicate name in SCF output, whereas a 'c' in
 the SCF output indicates the quantity has converged.)

Symmetries present (total): 1

  ( 1  0  0)
  ( 0  1  0)
  ( 0  0  1)

16 k-points: 4 x 4 x 1 Monkhorst-Pack grid
8 k-points in the irreducible part of the Brillouin zone
       k-points in crystal coordinates                weights
   0:     0.12500000   -0.37500000    0.00000000          2/16
   1:     0.12500000   -0.12500000    0.00000000          2/16
   2:     0.12500000    0.12500000    0.00000000          2/16
   3:     0.12500000    0.37500000    0.00000000          2/16
   4:     0.37500000   -0.37500000    0.00000000          2/16
   5:     0.37500000   -0.12500000    0.00000000          2/16
   6:     0.37500000    0.12500000    0.00000000          2/16
   7:     0.37500000    0.37500000    0.00000000          2/16

Wave functions: Plane wave expansion
  Cutoff energy: 600.000 eV
  Number of coefficients (min, max): 63070, 63184
  Pulay-stress correction: 0.000000 eV/Ang^3 (de/decut=0.000000)
  Using FFTW library
  ScaLapack parameters: grid=2x2, blocksize=64
  Wavefunction extrapolation:
    Improved wavefunction reuse through dual PAW basis 

Occupation numbers: Fermi-Dirac: width=0.1000 eV
 

Eigensolver
   Davidson(niter=2) 

Densities:
  Coarse grid: 45*48*175 grid
  Fine grid: 90*96*350 grid
  Total Charge: 0.000000 

Density mixing:
  Method: separate
  Backend: pulay
  Linear mixing parameter: 0.05
  Mixing with 5 old densities
  Damping of long wave oscillations: 50 

Hamiltonian:
  XC and Coulomb potentials evaluated on a 90*96*350 grid
  Using the BEEF-vdW Exchange-Correlation functional
  External potential:
    NoExternalPotential
 

XC parameters: BEEF-vdW with 2 nearest neighbor stencil

Memory estimate:
  Process memory now: 252.57 MiB
  Calculator: 937.13 MiB
    Density: 47.05 MiB
      Arrays: 18.85 MiB
      Localized functions: 20.94 MiB
      Mixer: 7.25 MiB
    Hamiltonian: 12.84 MiB
      Arrays: 12.33 MiB
      XC: 0.00 MiB
      Poisson: 0.00 MiB
      vbar: 0.51 MiB
    Wavefunctions: 877.24 MiB
      Arrays psit_nG: 412.64 MiB
      Eigensolver: 445.42 MiB
      Projections: 1.93 MiB
      Projectors: 2.41 MiB
      PW-descriptor: 14.84 MiB

Total number of cores used: 32
Parallelization over k-points: 8
Domain decomposition: 1 x 1 x 4
                      2 x 2 x 8 (xc only)

Number of atoms: 70
Number of atomic orbitals: 1018
Number of bands in calculation: 428
Number of valence electrons: 706
Bands to converge: occupied

... initialized

Initializing position-dependent things.

Density initialized from atomic densities
Creating initial wave functions:
  428 bands from LCAO basis set

                                     
                                     
                                     
                                     
            Cl    Cl    Cl           
                                     
                Cl     Cl            
        Cl Cu  ClCu  Cl Cu           
                                     
         Cu    Cu    CCu    Cu       
       Cu    Cu    Cu     Cu         
              Cu    Cu               
           Cu    CCu    Cu           
         Cu    Cu    CCu    Cu       
                                     
       Cu    CCu   CCu    Cu         
           Cu    CCu   CCu           
                                     
         Cu    Cu    CCu    Cu       
             Cu     Cu    Cu         
       Cu     Cu    Cu               
           Cu Cl  CuCl  Cu Cl        
            Cl                       
                   Cl                
          Cl     Cl    Cl            
                                     
                                     
                                     
                                     

Positions:
   0 Cu     1.851874    1.842086   10.044767    ( 0.0000,  0.0000,  0.0000)
   1 Cu     0.572048    0.518337   11.854739    ( 0.0000,  0.0000,  0.0000)
   2 Cu     3.208369    0.549454   11.826759    ( 0.0000,  0.0000,  0.0000)
   3 Cu     1.885044    1.836608   13.699605    ( 0.0000,  0.0000,  0.0000)
   4 Cu     0.579320    0.526826   15.560947    ( 0.0000,  0.0000,  0.0000)
   5 Cu     3.185437    0.522508   15.555968    ( 0.0000,  0.0000,  0.0000)
   6 Cu     1.901068    1.854575   17.424612    ( 0.0000,  0.0000,  0.0000)
   7 Cu     0.575906    0.561899   19.206760    ( 0.0000,  0.0000,  0.0000)
   8 Cu     3.188310    0.488633   19.210481    ( 0.0000,  0.0000,  0.0000)
   9 Cu     0.574574    3.144633   11.846476    ( 0.0000,  0.0000,  0.0000)
  10 Cu     0.575916    3.143785   15.552326    ( 0.0000,  0.0000,  0.0000)
  11 Cu     0.546349    3.145891   19.206137    ( 0.0000,  0.0000,  0.0000)
  12 Cu     7.147069    1.821677   10.043621    ( 0.0000,  0.0000,  0.0000)
  13 Cu     5.794000    0.540777   11.820405    ( 0.0000,  0.0000,  0.0000)
  14 Cu     7.114080    1.831917   13.694773    ( 0.0000,  0.0000,  0.0000)
  15 Cu     5.808982    0.523918   15.556714    ( 0.0000,  0.0000,  0.0000)
  16 Cu     7.113100    1.827061   17.396972    ( 0.0000,  0.0000,  0.0000)
  17 Cu     5.807880    0.526790   19.217827    ( 0.0000,  0.0000,  0.0000)
  18 Cu     4.494064    1.763231    9.932089    ( 0.0000,  0.0000,  0.0000)
  19 Cu     4.496146    4.525263    9.931071    ( 0.0000,  0.0000,  0.0000)
  20 Cu     3.207669    3.147945   11.830838    ( 0.0000,  0.0000,  0.0000)
  21 Cu     5.791432    3.139321   11.831411    ( 0.0000,  0.0000,  0.0000)
  22 Cu     4.501104    1.833097   13.705422    ( 0.0000,  0.0000,  0.0000)
  23 Cu     4.500286    4.451342   13.700374    ( 0.0000,  0.0000,  0.0000)
  24 Cu     3.191019    3.143173   15.550169    ( 0.0000,  0.0000,  0.0000)
  25 Cu     5.806714    3.142761   15.552225    ( 0.0000,  0.0000,  0.0000)
  26 Cu     4.483820    1.848780   17.430757    ( 0.0000,  0.0000,  0.0000)
  27 Cu     4.483576    4.446716   17.420218    ( 0.0000,  0.0000,  0.0000)
  28 Cu     3.195113    3.070202   19.320757    ( 0.0000,  0.0000,  0.0000)
  29 Cu     5.840799    3.127025   19.209886    ( 0.0000,  0.0000,  0.0000)
  30 Cu     1.850636    4.467419   10.041562    ( 0.0000,  0.0000,  0.0000)
  31 Cu     1.883456    7.067453   10.032493    ( 0.0000,  0.0000,  0.0000)
  32 Cu     0.578168    5.767618   11.853682    ( 0.0000,  0.0000,  0.0000)
  33 Cu     3.207330    5.746015   11.820678    ( 0.0000,  0.0000,  0.0000)
  34 Cu     1.884398    4.451712   13.698510    ( 0.0000,  0.0000,  0.0000)
  35 Cu     1.882140    7.070634   13.694193    ( 0.0000,  0.0000,  0.0000)
  36 Cu     0.577138    5.762455   15.555937    ( 0.0000,  0.0000,  0.0000)
  37 Cu     3.190200    5.761333   15.545038    ( 0.0000,  0.0000,  0.0000)
  38 Cu     1.899950    4.455283   17.419419    ( 0.0000,  0.0000,  0.0000)
  39 Cu     1.897387    7.053708   17.430112    ( 0.0000,  0.0000,  0.0000)
  40 Cu     0.544416    5.772752   19.207193    ( 0.0000,  0.0000,  0.0000)
  41 Cu     3.197353    5.832220   19.317966    ( 0.0000,  0.0000,  0.0000)
  42 Cu     7.144990    4.448863   10.045121    ( 0.0000,  0.0000,  0.0000)
  43 Cu     7.115261    7.033008   10.044024    ( 0.0000,  0.0000,  0.0000)
  44 Cu     5.790284    5.740371   11.826573    ( 0.0000,  0.0000,  0.0000)
  45 Cu     7.115409    4.450638   13.698320    ( 0.0000,  0.0000,  0.0000)
  46 Cu     7.111993    7.067752   13.689826    ( 0.0000,  0.0000,  0.0000)
  47 Cu     5.806194    5.757852   15.551058    ( 0.0000,  0.0000,  0.0000)
  48 Cu     7.116689    4.449777   17.404260    ( 0.0000,  0.0000,  0.0000)
  49 Cu     7.119110    7.076103   17.395949    ( 0.0000,  0.0000,  0.0000)
  50 Cu     5.839650    5.752596   19.206190    ( 0.0000,  0.0000,  0.0000)
  51 Cu     4.502840    7.106124   10.040718    ( 0.0000,  0.0000,  0.0000)
  52 Cu     4.505854    7.072213   13.694900    ( 0.0000,  0.0000,  0.0000)
  53 Cu     4.482985    7.045347   17.423899    ( 0.0000,  0.0000,  0.0000)
  54 Cl     3.111134    4.453599   21.202893    ( 0.0000,  0.0000,  0.0000)
  55 Cl     4.580310    3.143724    8.048163    ( 0.0000,  0.0000,  0.0000)
  56 Cl     1.867046    5.767436    8.237027    ( 0.0000,  0.0000,  0.0000)
  57 Cl     0.561128    1.853895   21.006449    ( 0.0000,  0.0000,  0.0000)
  58 Cl     5.840224    7.039810   21.008038    ( 0.0000,  0.0000,  0.0000)
  59 Cl     7.093286    0.367959    8.057112    ( 0.0000,  0.0000,  0.0000)
  60 Cl     7.130126    5.740935    8.244573    ( 0.0000,  0.0000,  0.0000)
  61 Cl     5.824339    1.826908   21.013856    ( 0.0000,  0.0000,  0.0000)
  62 Cl     0.561128    7.353895   21.006449    ( 0.0000,  0.0000,  0.0000)
  63 Cl     1.699919    0.405738    8.070012    ( 0.0000,  0.0000,  0.0000)
  64 Cl     4.498586    5.754186    8.240800    ( 0.0000,  0.0000,  0.0000)
  65 Cl     3.192734    1.840401   21.010153    ( 0.0000,  0.0000,  0.0000)
  66 Cl     5.832282    4.433359   21.010947    ( 0.0000,  0.0000,  0.0000)
  67 Cl     1.783482    3.086587    8.153520    ( 0.0000,  0.0000,  0.0000)
  68 Cl     4.396602    0.386848    8.063562    ( 0.0000,  0.0000,  0.0000)
  69 Cl     3.200676    7.196853   21.007243    ( 0.0000,  0.0000,  0.0000)

Unit cell:
           periodic     x           y           z      points  spacing
  1. axis:    yes    7.851007    0.000000    0.000000    45     0.1655
  2. axis:    yes    2.617002    7.851007    0.000000    48     0.1636
  3. axis:    yes    0.000000    0.000000   30.683867   175     0.1753

  Lengths:   7.851007   8.275688  30.683867
  Angles:   90.000000  90.000000  71.565053

Effective grid spacing dv^(1/3) = 0.1710

     iter     time        total  log10-change:
                         energy  eigst   dens
iter:   1 14:54:36 -5170.364245
iter:   2 14:55:33 -4865.773381  +1.10  -0.66
iter:   3 14:56:30 -4724.252157  +0.19  -0.93
iter:   4 14:57:28 -4692.386417  -0.59  -1.19
iter:   5 14:58:26 -4677.185813  -1.23  -1.34
iter:   6 14:59:46 -4656.761161  -1.38  -1.42
iter:   7 15:00:37 -4654.895566  -2.33  -1.56
iter:   8 15:01:26 -4658.319296  -2.30  -1.60
iter:   9 15:02:14 -4665.133870  -2.11  -1.61
iter:  10 15:03:02 -4667.611835  -1.89  -1.67
iter:  11 15:03:50 -4666.544114  -2.33  -1.55
iter:  12 15:04:39 -4660.695379  -3.12  -1.55
iter:  13 15:05:27 -4658.570467  -3.01  -1.63
iter:  14 15:06:15 -4668.887185  -2.58  -1.63
iter:  15 15:07:03 -4656.617657  -1.74  -1.54
iter:  16 15:08:01 -4654.599587  -2.22  -1.68
iter:  17 15:08:59 -4652.889301  -3.12  -1.84
iter:  18 15:09:58 -4652.672043  -3.72  -2.08
iter:  19 15:10:56 -4652.521058  -2.96  -2.13
iter:  20 15:11:54 -4652.289806  -2.91  -2.14
iter:  21 15:12:52 -4652.274048c -3.71  -2.43
iter:  22 15:13:50 -4652.219674c -3.99  -2.53
iter:  23 15:14:41 -4652.200498c -4.75  -2.79
iter:  24 15:15:39 -4652.199610c -4.93  -2.95
iter:  25 15:16:38 -4652.196145c -4.82  -2.98
iter:  26 15:17:50 -4652.195649c -4.97  -3.14
iter:  27 15:18:58 -4652.196153c -5.20  -3.28
iter:  28 15:19:57 -4652.193194c -5.53  -3.41
iter:  29 15:20:56 -4652.194467c -6.01  -3.59
iter:  30 15:22:03 -4652.193852c -6.47  -3.62
iter:  31 15:23:07 -4652.193361c -5.89  -3.75
iter:  32 15:24:07 -4652.193373c -6.78  -3.88
iter:  33 15:25:06 -4652.193388c -6.78  -4.06c
iter:  34 15:26:05 -4652.193557c -6.68  -4.15c
iter:  35 15:27:04 -4652.193417c -7.72c -4.19c

Converged after 35 iterations.

Dipole moment: (-16.864852, -46.478477, 0.089819) |e|*Ang

Energy contributions relative to reference atoms: (reference = -2632037.589752)

Kinetic:       +717.960625
Potential:     -695.905158
External:        +0.000000
XC:            -4673.003774
Entropy (-ST):   -0.883330
Local:           -0.803444
--------------------------
Free energy:   -4652.635082
Extrapolated:  -4652.193417

Showing only first 2 kpts
 Kpt  Band  Eigenvalues  Occupancy
  0   351      0.48612    1.55210
  0   352      0.57854    1.15795
  0   353      0.60948    1.00460
  0   354      0.63041    0.90028

  1   351      0.55528    1.26886
  1   352      0.60063    1.04883
  1   353      0.67074    0.70712
  1   354      0.74448    0.41475


Fermi level: 0.61040

No gap

Forces in eV/Ang:
  0 Cu    0.09193   -0.04057    0.44785
  1 Cu    0.04457   -0.02487    0.16647
  2 Cu   -0.05504   -0.05924    0.17201
  3 Cu    0.00902   -0.00013    0.01463
  4 Cu    0.00848    0.00659   -0.04503
  5 Cu    0.01545    0.01817   -0.05426
  6 Cu   -0.03856   -0.11353   -0.32580
  7 Cu    0.02165    0.06465   -1.82257
  8 Cu   -0.02366    0.12628   -1.32538
  9 Cu   -0.09152    0.00990    0.13617
 10 Cu    0.00410   -0.00618   -0.05871
 11 Cu    0.22187    0.71866   -0.42313
 12 Cu   -0.23473    0.18582   -0.14227
 13 Cu    0.01176   -0.09335    0.21617
 14 Cu   -0.01540   -0.00190    0.10387
 15 Cu   -0.02591   -0.02217   -0.04131
 16 Cu   -0.03334   -0.05450   -0.27288
 17 Cu    0.01474    0.64195   -3.10950
 18 Cu    0.11757    0.38530    0.45717
 19 Cu    0.11875   -1.50840    1.90134
 20 Cu    0.05893    0.00356    0.00638
 21 Cu    0.01856    0.00041   -0.14125
 22 Cu    0.00451    0.00579    0.06544
 23 Cu   -0.00035   -0.00593    0.02141
 24 Cu   -0.00123    0.00582   -0.02872
 25 Cu   -0.00008    0.01238   -0.03071
 26 Cu    0.07511   -0.04116   -0.30501
 27 Cu   -0.07539    0.01108   -0.02044
 28 Cu   -0.14092    1.47782   -1.99532
 29 Cu   -0.07297    0.19988   -1.30740
 30 Cu    0.09591   -0.48309    0.72723
 31 Cu   -0.05675    0.31860    1.28994
 32 Cu    0.02978    0.05613    0.27413
 33 Cu   -0.07635    0.03577    0.30061
 34 Cu    0.00005   -0.00851    0.01430
 35 Cu    0.02693    0.02027    0.04251
 36 Cu    0.01735    0.00007   -0.09359
 37 Cu   -0.00552   -0.00684   -0.05541
 38 Cu   -0.01217    0.00482    0.15146
 39 Cu   -0.00280    0.08300   -0.31712
 40 Cu    0.22905   -0.36244   -0.02646
 41 Cu   -0.17912   -1.01131   -1.14447
 42 Cu   -0.19560   -0.69879    0.38588
 43 Cu    0.00206    0.49173    1.08700
 44 Cu    0.03009    0.10416    0.32209
 45 Cu   -0.00458    0.00951    0.04874
 46 Cu   -0.00951   -0.00455    0.04634
 47 Cu   -0.00873   -0.00278   -0.00177
 48 Cu    0.09430    0.01148   -0.13941
 49 Cu   -0.04939    0.01483   -0.26450
 50 Cu   -0.04196   -0.18332   -1.27734
 51 Cu    0.04618    0.23508    1.07910
 52 Cu   -0.01521   -0.01692    0.06342
 53 Cu    0.05090    0.06004   -0.27549
 54 Cl   -1.83708    0.48243    0.74006
 55 Cl    1.54823   -0.31007   -0.47767
 56 Cl    0.28404   -1.72276   -1.38947
 57 Cl    0.15845    3.04033    1.37143
 58 Cl   -0.25661   -0.22300    1.76213
 59 Cl   -1.22129    3.43441   -0.69625
 60 Cl   -0.07766   -3.07443   -1.06866
 61 Cl   -0.19521    2.23834    2.02850
 62 Cl    0.24552   -4.48778    2.35783
 63 Cl    1.15349    0.88011   -1.02801
 64 Cl   -0.03139    0.31834   -2.35433
 65 Cl    0.05430   -0.94608    2.38363
 66 Cl    1.73710   -0.22364    1.43252
 67 Cl   -1.47820   -0.23820   -0.64613
 68 Cl   -0.13435    1.79521   -1.01343
 69 Cl    0.06066   -1.52710    2.10799

System changes: positions 

Initializing position-dependent things.

Density initialized from wave functions
                                     
                                     
                                     
                                     
            Cl    Cl    Cl           
                                     
                Cl     Cl            
        Cl Cu  ClCu  Cl Cu           
               Cu    Cu              
         Cu    Cu     Cu    Cu       
             Cu    Cu     Cu         
       Cu     Cu    Cu               
           Cu    CCu    Cu           
         Cu    Cu    CCu    Cu       
                                     
       Cu    CCu    Cu    Cu         
           Cu    CCu    Cu           
               Cu    Cu     Cu       
         Cu     Cu    Cu             
             Cu     Cu    Cu         
       Cu     Cu    Cu               
           Cu Cl  CuCl  Cu Cl        
            Cl     Cl                
                                     
          Cl     Cl    Cl            
                                     
                                     
                                     
                                     

Positions:
   0 Cu     1.855497    1.840487   10.062415    ( 0.0000,  0.0000,  0.0000)
   1 Cu     0.573804    0.517357   11.861299    ( 0.0000,  0.0000,  0.0000)
   2 Cu     3.206200    0.547120   11.833537    ( 0.0000,  0.0000,  0.0000)
   3 Cu     1.885399    1.836603   13.700182    ( 0.0000,  0.0000,  0.0000)
   4 Cu     0.579654    0.527086   15.559172    ( 0.0000,  0.0000,  0.0000)
   5 Cu     3.186046    0.523224   15.553830    ( 0.0000,  0.0000,  0.0000)
   6 Cu     1.899549    1.850101   17.411774    ( 0.0000,  0.0000,  0.0000)
   7 Cu     0.576759    0.564447   19.134940    ( 0.0000,  0.0000,  0.0000)
   8 Cu     3.187378    0.493609   19.158253    ( 0.0000,  0.0000,  0.0000)
   9 Cu     0.570968    3.145023   11.851842    ( 0.0000,  0.0000,  0.0000)
  10 Cu     0.576077    3.143542   15.550012    ( 0.0000,  0.0000,  0.0000)
  11 Cu     0.555092    3.174210   19.189463    ( 0.0000,  0.0000,  0.0000)
  12 Cu     7.137819    1.828999   10.038015    ( 0.0000,  0.0000,  0.0000)
  13 Cu     5.794463    0.537098   11.828923    ( 0.0000,  0.0000,  0.0000)
  14 Cu     7.113473    1.831842   13.698866    ( 0.0000,  0.0000,  0.0000)
  15 Cu     5.807961    0.523044   15.555086    ( 0.0000,  0.0000,  0.0000)
  16 Cu     7.111786    1.824913   17.386219    ( 0.0000,  0.0000,  0.0000)
  17 Cu     5.808461    0.552087   19.095295    ( 0.0000,  0.0000,  0.0000)
  18 Cu     4.498697    1.778414    9.950104    ( 0.0000,  0.0000,  0.0000)
  19 Cu     4.500825    4.465823   10.005995    ( 0.0000,  0.0000,  0.0000)
  20 Cu     3.209991    3.148085   11.831089    ( 0.0000,  0.0000,  0.0000)
  21 Cu     5.792164    3.139337   11.825845    ( 0.0000,  0.0000,  0.0000)
  22 Cu     4.501282    1.833325   13.708001    ( 0.0000,  0.0000,  0.0000)
  23 Cu     4.500272    4.451108   13.701218    ( 0.0000,  0.0000,  0.0000)
  24 Cu     3.190971    3.143402   15.549037    ( 0.0000,  0.0000,  0.0000)
  25 Cu     5.806711    3.143249   15.551015    ( 0.0000,  0.0000,  0.0000)
  26 Cu     4.486780    1.847158   17.418738    ( 0.0000,  0.0000,  0.0000)
  27 Cu     4.480605    4.447152   17.419412    ( 0.0000,  0.0000,  0.0000)
  28 Cu     3.189560    3.128437   19.242130    ( 0.0000,  0.0000,  0.0000)
  29 Cu     5.837924    3.134902   19.158367    ( 0.0000,  0.0000,  0.0000)
  30 Cu     1.854415    4.448382   10.070219    ( 0.0000,  0.0000,  0.0000)
  31 Cu     1.881220    7.080008   10.083324    ( 0.0000,  0.0000,  0.0000)
  32 Cu     0.579342    5.769830   11.864484    ( 0.0000,  0.0000,  0.0000)
  33 Cu     3.204322    5.747424   11.832524    ( 0.0000,  0.0000,  0.0000)
  34 Cu     1.884400    4.451377   13.699073    ( 0.0000,  0.0000,  0.0000)
  35 Cu     1.883201    7.071433   13.695868    ( 0.0000,  0.0000,  0.0000)
  36 Cu     0.577822    5.762458   15.552249    ( 0.0000,  0.0000,  0.0000)
  37 Cu     3.189982    5.761063   15.542855    ( 0.0000,  0.0000,  0.0000)
  38 Cu     1.899471    4.455473   17.425387    ( 0.0000,  0.0000,  0.0000)
  39 Cu     1.897277    7.056979   17.417616    ( 0.0000,  0.0000,  0.0000)
  40 Cu     0.553442    5.758470   19.206150    ( 0.0000,  0.0000,  0.0000)
  41 Cu     3.190295    5.792369   19.272868    ( 0.0000,  0.0000,  0.0000)
  42 Cu     7.137282    4.421327   10.060327    ( 0.0000,  0.0000,  0.0000)
  43 Cu     7.115342    7.052385   10.086858    ( 0.0000,  0.0000,  0.0000)
  44 Cu     5.791470    5.744476   11.839265    ( 0.0000,  0.0000,  0.0000)
  45 Cu     7.115228    4.451013   13.700241    ( 0.0000,  0.0000,  0.0000)
  46 Cu     7.111618    7.067573   13.691652    ( 0.0000,  0.0000,  0.0000)
  47 Cu     5.805850    5.757743   15.550988    ( 0.0000,  0.0000,  0.0000)
  48 Cu     7.120405    4.450229   17.398766    ( 0.0000,  0.0000,  0.0000)
  49 Cu     7.117164    7.076687   17.385526    ( 0.0000,  0.0000,  0.0000)
  50 Cu     5.837997    5.745372   19.155855    ( 0.0000,  0.0000,  0.0000)
  51 Cu     4.504660    7.115387   10.083241    ( 0.0000,  0.0000,  0.0000)
  52 Cu     4.505255    7.071546   13.697399    ( 0.0000,  0.0000,  0.0000)
  53 Cu     4.484991    7.047713   17.413043    ( 0.0000,  0.0000,  0.0000)
  54 Cl     3.038742    4.472610   21.232055    ( 0.0000,  0.0000,  0.0000)
  55 Cl     4.641319    3.131505    8.029340    ( 0.0000,  0.0000,  0.0000)
  56 Cl     1.878239    5.699549    8.182275    ( 0.0000,  0.0000,  0.0000)
  57 Cl     0.567371    1.973701   21.060491    ( 0.0000,  0.0000,  0.0000)
  58 Cl     5.830113    7.031023   21.077476    ( 0.0000,  0.0000,  0.0000)
  59 Cl     7.045160    0.503294    8.029676    ( 0.0000,  0.0000,  0.0000)
  60 Cl     7.127065    5.619785    8.202461    ( 0.0000,  0.0000,  0.0000)
  61 Cl     5.816647    1.915111   21.093791    ( 0.0000,  0.0000,  0.0000)
  62 Cl     0.570802    7.177051   21.099360    ( 0.0000,  0.0000,  0.0000)
  63 Cl     1.745373    0.440420    8.029503    ( 0.0000,  0.0000,  0.0000)
  64 Cl     4.497349    5.766730    8.148026    ( 0.0000,  0.0000,  0.0000)
  65 Cl     3.194873    1.803120   21.104081    ( 0.0000,  0.0000,  0.0000)
  66 Cl     5.900734    4.424546   21.067397    ( 0.0000,  0.0000,  0.0000)
  67 Cl     1.725233    3.077200    8.128059    ( 0.0000,  0.0000,  0.0000)
  68 Cl     4.391308    0.457590    8.023627    ( 0.0000,  0.0000,  0.0000)
  69 Cl     3.203066    7.136676   21.090310    ( 0.0000,  0.0000,  0.0000)

Unit cell:
           periodic     x           y           z      points  spacing
  1. axis:    yes    7.851007    0.000000    0.000000    45     0.1655
  2. axis:    yes    2.617002    7.851007    0.000000    48     0.1636
  3. axis:    yes    0.000000    0.000000   30.683867   175     0.1753

  Lengths:   7.851007   8.275688  30.683867
  Angles:   90.000000  90.000000  71.565053

Effective grid spacing dv^(1/3) = 0.1710

     iter     time        total  log10-change:
                         energy  eigst   dens
iter:   1 15:28:58 -4680.526080  -0.91
iter:   2 15:30:16 -4660.886847  -1.34  -1.56
iter:   3 15:31:19 -4659.851616  -2.49  -1.85
iter:   4 15:32:08 -4658.549143  -3.77  -1.86
iter:   5 15:33:06 -4657.821718  -3.36  -1.93
iter:   6 15:34:06 -4657.125561  -2.76  -2.04
iter:   7 15:35:05 -4656.883839  -3.29  -2.18
iter:   8 15:36:05 -4656.520029  -2.82  -2.26
iter:   9 15:37:04 -4656.491035  -3.88  -2.60
iter:  10 15:38:03 -4656.476342c -3.89  -2.64
iter:  11 15:39:01 -4656.446101c -3.94  -2.69
iter:  12 15:40:00 -4656.421669c -4.24  -2.79
iter:  13 15:41:01 -4656.421335c -4.53  -2.97
iter:  14 15:42:00 -4656.437119c -4.64  -2.99
iter:  15 15:42:59 -4656.416876c -5.01  -2.94
iter:  16 15:43:57 -4656.416051c -5.05  -3.13
iter:  17 15:44:56 -4656.413181c -4.91  -3.26
iter:  18 15:45:55 -4656.411794c -5.13  -3.42
iter:  19 15:46:51 -4656.411175c -5.79  -3.48
iter:  20 15:47:40 -4656.410559c -6.41  -3.51
iter:  21 15:48:28 -4656.411322c -5.75  -3.55
iter:  22 15:49:17 -4656.409990c -6.32  -3.58
iter:  23 15:50:06 -4656.410485c -5.98  -3.69
iter:  24 15:50:54 -4656.410529c -6.33  -3.69
iter:  25 15:51:43 -4656.410356c -6.45  -3.79
iter:  26 15:52:38 -4656.410274c -6.37  -3.96
iter:  27 15:53:37 -4656.409997c -6.57  -4.17c
iter:  28 15:54:37 -4656.410171c -7.05  -4.27c
iter:  29 15:55:38 -4656.409959c -7.14  -4.46c
iter:  30 15:56:49 -4656.409970c -7.57c -4.56c

Converged after 30 iterations.

Dipole moment: (-18.454065, -44.965029, 0.041482) |e|*Ang

Energy contributions relative to reference atoms: (reference = -2632037.589752)

Kinetic:       +660.262632
Potential:     -651.568060
External:        +0.000000
XC:            -4664.076647
Entropy (-ST):   -0.855911
Local:           -0.599939
--------------------------
Free energy:   -4656.837926
Extrapolated:  -4656.409970

Showing only first 2 kpts
 Kpt  Band  Eigenvalues  Occupancy
  0   351      0.50751    1.07949
  0   352      0.52224    1.00602
  0   353      0.58008    0.72414
  0   354      0.60875    0.59759

  1   351      0.54369    0.89913
  1   352      0.58590    0.69748
  1   353      0.60615    0.60852
  1   354      0.64289    0.46492


Fermi level: 0.52344

No gap

Forces in eV/Ang:
  0 Cu    0.07113    0.01732    0.21098
  1 Cu    0.01103    0.05702    0.21923
  2 Cu   -0.03027    0.01455    0.23838
  3 Cu    0.01190    0.00502    0.02505
  4 Cu    0.01075    0.00375   -0.07561
  5 Cu    0.01111    0.01468   -0.08569
  6 Cu   -0.02678   -0.02553   -0.36918
  7 Cu   -0.02110   -0.06012   -0.11688
  8 Cu    0.01064    0.14729   -0.38746
  9 Cu   -0.09636   -0.03412    0.18089
 10 Cu    0.00994    0.00452   -0.06506
 11 Cu    0.16807    0.39421   -0.25739
 12 Cu   -0.15939    0.08429   -0.17013
 13 Cu    0.01811    0.00185    0.27934
 14 Cu   -0.01899    0.00237    0.09047
 15 Cu   -0.02313   -0.02153   -0.07145
 16 Cu    0.07632    0.10033   -0.42418
 17 Cu    0.01105   -0.10768    0.03620
 18 Cu    0.06529    0.30222    0.31805
 19 Cu    0.07227   -0.50093    0.41591
 20 Cu    0.01136   -0.05998    0.13919
 21 Cu    0.06592   -0.06968    0.04253
 22 Cu    0.00517    0.01203    0.05982
 23 Cu    0.00261   -0.01765    0.03552
 24 Cu   -0.00520    0.01863   -0.04196
 25 Cu   -0.00259    0.02349   -0.04251
 26 Cu   -0.04332    0.06252   -0.43583
 27 Cu   -0.03700    0.03583   -0.21668
 28 Cu   -0.08319    0.46707   -0.31574
 29 Cu   -0.10119    0.12254   -0.50677
 30 Cu    0.10058   -0.23444    0.37449
 31 Cu   -0.02510    0.06383    0.15775
 32 Cu   -0.00555   -0.00672    0.24698
 33 Cu   -0.05135    0.00955    0.27756
 34 Cu    0.00233   -0.01903    0.02828
 35 Cu    0.02491    0.02326    0.06460
 36 Cu    0.02080   -0.00867   -0.09292
 37 Cu   -0.00578   -0.01860   -0.06120
 38 Cu   -0.08104    0.05060   -0.08173
 39 Cu    0.00684   -0.04570   -0.37580
 40 Cu    0.15769   -0.10992    0.08158
 41 Cu   -0.09656   -0.47640   -0.48700
 42 Cu   -0.15281   -0.41762    0.32415
 43 Cu   -0.00000    0.09350    0.07696
 44 Cu    0.04163    0.06337    0.29412
 45 Cu   -0.00950    0.00035    0.05898
 46 Cu   -0.01137    0.00184    0.07110
 47 Cu   -0.01189   -0.01258   -0.02773
 48 Cu    0.13421    0.02248   -0.24626
 49 Cu   -0.03163   -0.08353   -0.32538
 50 Cu   -0.07211   -0.10515   -0.35962
 51 Cu   -0.01136   -0.07001    0.32739
 52 Cu   -0.01241   -0.00887    0.08614
 53 Cu    0.02485    0.00129   -0.31847
 54 Cl   -1.23323   -0.38915    0.26292
 55 Cl    1.07889    0.39348   -0.18452
 56 Cl    0.19674   -0.16664   -0.69887
 57 Cl    0.10782    1.74262    0.55578
 58 Cl   -0.20006   -0.22920    0.93062
 59 Cl   -0.49864    2.08572   -0.10041
 60 Cl   -0.02486   -1.64493   -0.51826
 61 Cl   -0.14683    0.06421    0.91997
 62 Cl    0.21000   -2.15381    0.25096
 63 Cl    0.40694    0.46524   -0.67587
 64 Cl    0.06045   -0.14437   -0.94394
 65 Cl   -0.00151   -0.08808    0.85837
 66 Cl    1.18581    0.72650    0.72375
 67 Cl   -1.06536   -0.59661   -0.43675
 68 Cl   -0.08026    0.28896   -0.56813
 69 Cl    0.08357   -0.05537    0.80495

System changes: positions 

Initializing position-dependent things.

Density initialized from wave functions
                                     
                                     
                                     
                                     
            Cl    Cl    Cl           
                                     
                Cl     Cl            
        Cl Cu  ClCu  Cl Cu           
                                     
         Cu    Cu    CCu    Cu       
             Cu    Cu     Cu         
       Cu     Cu    Cu               
           Cu    CCu    Cu           
         Cu    Cu    CCu    Cu       
                                     
       Cu    CCu    Cu    Cu         
           Cu    CCu    Cu           
               Cu    Cu     Cu       
         Cu    Cu     Cu             
       Cu    CCu    Cu    Cu         
                                     
           Cu Cl  CuCl  Cu Cl        
            Cl     Cl                
                                     
          Cl     Cl    Cl            
                                     
                                     
                                     
                                     

Positions:
   0 Cu     1.862580    1.843220   10.080620    ( 0.0000,  0.0000,  0.0000)
   1 Cu     0.574418    0.524613   11.884999    ( 0.0000,  0.0000,  0.0000)
   2 Cu     3.203440    0.549817   11.859452    ( 0.0000,  0.0000,  0.0000)
   3 Cu     1.886687    1.837209   13.702960    ( 0.0000,  0.0000,  0.0000)
   4 Cu     0.580811    0.527432   15.550800    ( 0.0000,  0.0000,  0.0000)
   5 Cu     3.187134    0.524698   15.544393    ( 0.0000,  0.0000,  0.0000)
   6 Cu     1.896945    1.848847   17.372590    ( 0.0000,  0.0000,  0.0000)
   7 Cu     0.573876    0.556182   19.150053    ( 0.0000,  0.0000,  0.0000)
   8 Cu     3.189036    0.509301   19.132868    ( 0.0000,  0.0000,  0.0000)
   9 Cu     0.560844    3.140761   11.871417    ( 0.0000,  0.0000,  0.0000)
  10 Cu     0.577208    3.144184   15.543127    ( 0.0000,  0.0000,  0.0000)
  11 Cu     0.571754    3.210118   19.165280    ( 0.0000,  0.0000,  0.0000)
  12 Cu     7.122407    1.836163   10.019831    ( 0.0000,  0.0000,  0.0000)
  13 Cu     5.796453    0.538814   11.859058    ( 0.0000,  0.0000,  0.0000)
  14 Cu     7.111436    1.832158   13.708084    ( 0.0000,  0.0000,  0.0000)
  15 Cu     5.805593    0.520810   15.547154    ( 0.0000,  0.0000,  0.0000)
  16 Cu     7.121498    1.837852   17.339574    ( 0.0000,  0.0000,  0.0000)
  17 Cu     5.809553    0.528863   19.149413    ( 0.0000,  0.0000,  0.0000)
  18 Cu     4.504667    1.808593    9.981037    ( 0.0000,  0.0000,  0.0000)
  19 Cu     4.507617    4.429721   10.025584    ( 0.0000,  0.0000,  0.0000)
  20 Cu     3.210415    3.140815   11.847726    ( 0.0000,  0.0000,  0.0000)
  21 Cu     5.799794    3.130951   11.833220    ( 0.0000,  0.0000,  0.0000)
  22 Cu     4.501832    1.834680   13.714148    ( 0.0000,  0.0000,  0.0000)
  23 Cu     4.500592    4.449080   13.705146    ( 0.0000,  0.0000,  0.0000)
  24 Cu     3.190366    3.145550   15.544451    ( 0.0000,  0.0000,  0.0000)
  25 Cu     5.806400    3.145875   15.546394    ( 0.0000,  0.0000,  0.0000)
  26 Cu     4.480368    1.855336   17.371206    ( 0.0000,  0.0000,  0.0000)
  27 Cu     4.477362    4.451284   17.393681    ( 0.0000,  0.0000,  0.0000)
  28 Cu     3.181810    3.160957   19.236091    ( 0.0000,  0.0000,  0.0000)
  29 Cu     5.826922    3.146440   19.118345    ( 0.0000,  0.0000,  0.0000)
  30 Cu     1.864977    4.427920   10.103618    ( 0.0000,  0.0000,  0.0000)
  31 Cu     1.879110    7.082585   10.081651    ( 0.0000,  0.0000,  0.0000)
  32 Cu     0.578198    5.768123   11.889800    ( 0.0000,  0.0000,  0.0000)
  33 Cu     3.199368    5.748001   11.861093    ( 0.0000,  0.0000,  0.0000)
  34 Cu     1.884680    4.449224   13.702246    ( 0.0000,  0.0000,  0.0000)
  35 Cu     1.885766    7.073906   13.702957    ( 0.0000,  0.0000,  0.0000)
  36 Cu     0.580046    5.761414   15.542571    ( 0.0000,  0.0000,  0.0000)
  37 Cu     3.189376    5.758935   15.536382    ( 0.0000,  0.0000,  0.0000)
  38 Cu     1.889919    4.461481   17.413135    ( 0.0000,  0.0000,  0.0000)
  39 Cu     1.898144    7.050155   17.377496    ( 0.0000,  0.0000,  0.0000)
  40 Cu     0.568740    5.751051   19.216385    ( 0.0000,  0.0000,  0.0000)
  41 Cu     3.181549    5.751261   19.232616    ( 0.0000,  0.0000,  0.0000)
  42 Cu     7.122035    4.382286   10.093135    ( 0.0000,  0.0000,  0.0000)
  43 Cu     7.115309    7.055759   10.078717    ( 0.0000,  0.0000,  0.0000)
  44 Cu     5.795995    5.750429   11.869482    ( 0.0000,  0.0000,  0.0000)
  45 Cu     7.114160    4.450903   13.706554    ( 0.0000,  0.0000,  0.0000)
  46 Cu     7.110403    7.067866   13.699461    ( 0.0000,  0.0000,  0.0000)
  47 Cu     5.804560    5.756275   15.547682    ( 0.0000,  0.0000,  0.0000)
  48 Cu     7.135036    4.452749   17.371382    ( 0.0000,  0.0000,  0.0000)
  49 Cu     7.114150    7.066404   17.350628    ( 0.0000,  0.0000,  0.0000)
  50 Cu     5.829996    5.735660   19.133050    ( 0.0000,  0.0000,  0.0000)
  51 Cu     4.502554    7.103206   10.105343    ( 0.0000,  0.0000,  0.0000)
  52 Cu     4.504006    7.070750   13.706743    ( 0.0000,  0.0000,  0.0000)
  53 Cu     4.487164    7.046907   17.379152    ( 0.0000,  0.0000,  0.0000)
  54 Cl     2.919831    4.418089   21.251831    ( 0.0000,  0.0000,  0.0000)
  55 Cl     4.746291    3.183789    8.014793    ( 0.0000,  0.0000,  0.0000)
  56 Cl     1.897353    5.707080    8.120464    ( 0.0000,  0.0000,  0.0000)
  57 Cl     0.577803    2.134616   21.105382    ( 0.0000,  0.0000,  0.0000)
  58 Cl     5.810159    7.007028   21.161194    ( 0.0000,  0.0000,  0.0000)
  59 Cl     7.004737    0.699164    8.028744    ( 0.0000,  0.0000,  0.0000)
  60 Cl     7.125318    5.471165    8.157236    ( 0.0000,  0.0000,  0.0000)
  61 Cl     5.802113    1.887011   21.171965    ( 0.0000,  0.0000,  0.0000)
  62 Cl     0.592129    6.989850   21.091807    ( 0.0000,  0.0000,  0.0000)
  63 Cl     1.775852    0.482285    7.964673    ( 0.0000,  0.0000,  0.0000)
  64 Cl     4.505122    5.744273    8.072184    ( 0.0000,  0.0000,  0.0000)
  65 Cl     3.193822    1.807669   21.169164    ( 0.0000,  0.0000,  0.0000)
  66 Cl     6.015542    4.515496   21.131510    ( 0.0000,  0.0000,  0.0000)
  67 Cl     1.620767    3.009262    8.085875    ( 0.0000,  0.0000,  0.0000)
  68 Cl     4.383806    0.463611    7.971521    ( 0.0000,  0.0000,  0.0000)
  69 Cl     3.212146    7.154457   21.153380    ( 0.0000,  0.0000,  0.0000)

Unit cell:
           periodic     x           y           z      points  spacing
  1. axis:    yes    7.851007    0.000000    0.000000    45     0.1655
  2. axis:    yes    2.617002    7.851007    0.000000    48     0.1636
  3. axis:    yes    0.000000    0.000000   30.683867   175     0.1753

  Lengths:   7.851007   8.275688  30.683867
  Angles:   90.000000  90.000000  71.565053

Effective grid spacing dv^(1/3) = 0.1710

     iter     time        total  log10-change:
                         energy  eigst   dens
iter:   1 15:58:33 -4684.870838  -1.06
iter:   2 15:59:31 -4665.535044  -1.22  -1.54
iter:   3 16:00:19 -4660.560081  -2.46  -1.76
iter:   4 16:01:08 -4659.094000  -3.32  -1.95
iter:   5 16:01:56 -4658.888828  -3.51  -2.23
iter:   6 16:02:44 -4658.794048c -2.71  -2.28
iter:   7 16:03:33 -4658.628350c -3.78  -2.41
iter:   8 16:04:22 -4658.594570c -3.87  -2.62
iter:   9 16:05:10 -4658.562239c -3.72  -2.71
iter:  10 16:06:03 -4658.566672c -4.51  -2.84
iter:  11 16:07:21 -4658.553439c -4.51  -2.87
iter:  12 16:08:21 -4658.550276c -4.87  -3.12
iter:  13 16:09:20 -4658.540346c -5.03  -3.08
iter:  14 16:10:19 -4658.537328c -4.69  -3.38
iter:  15 16:11:18 -4658.538974c -5.21  -3.51
iter:  16 16:12:15 -4658.535810c -5.25  -3.51
iter:  17 16:13:04 -4658.536595c -5.64  -3.77
iter:  18 16:13:58 -4658.536284c -6.92  -3.91
iter:  19 16:14:57 -4658.536680c -6.18  -3.98
iter:  20 16:16:05 -4658.536455c -6.93  -4.22c
iter:  21 16:17:04 -4658.536299c -6.80  -4.29c
iter:  22 16:18:03 -4658.536398c -7.86c -4.51c

Converged after 22 iterations.

Dipole moment: (-18.762878, -42.203188, 0.025471) |e|*Ang

Energy contributions relative to reference atoms: (reference = -2632037.589752)

Kinetic:       +630.028584
Potential:     -628.818100
External:        +0.000000
XC:            -4658.742991
Entropy (-ST):   -0.807914
Local:           -0.599934
--------------------------
Free energy:   -4658.940355
Extrapolated:  -4658.536398

Showing only first 2 kpts
 Kpt  Band  Eigenvalues  Occupancy
  0   351      0.42515    1.12890
  0   352      0.44254    1.04266
  0   353      0.55505    0.52239
  0   354      0.58744    0.40730

  1   351      0.46530    0.92900
  1   352      0.50871    0.71954
  1   353      0.54811    0.54963
  1   354      0.59831    0.37315


Fermi level: 0.45107

No gap

Forces in eV/Ang:
  0 Cu    0.05398   -0.01102    0.09618
  1 Cu   -0.03218    0.01752    0.05380
  2 Cu    0.00165   -0.03262    0.07501
  3 Cu    0.00180    0.01591    0.05739
  4 Cu    0.01008   -0.00882   -0.11331
  5 Cu    0.00222    0.00158   -0.11464
  6 Cu   -0.05702   -0.03282   -0.09875
  7 Cu   -0.01556    0.03370    0.01772
  8 Cu    0.01029    0.06965   -0.06207
  9 Cu   -0.04982   -0.07106    0.15015
 10 Cu    0.02879    0.02440   -0.12754
 11 Cu    0.01571    0.05610   -0.20719
 12 Cu   -0.04378    0.03470    0.06327
 13 Cu    0.02312   -0.05664    0.09082
 14 Cu   -0.01159    0.01129    0.09763
 15 Cu   -0.01045   -0.00709   -0.08438
 16 Cu   -0.01255   -0.09704    0.01195
 17 Cu    0.00674    0.10779   -0.12661
 18 Cu   -0.01878    0.09291    0.00500
 19 Cu   -0.01219   -0.13121    0.20420
 20 Cu    0.00521   -0.02917    0.15088
 21 Cu    0.03050   -0.06458    0.17818
 22 Cu    0.00663    0.02176    0.06402
 23 Cu    0.00696   -0.02536    0.03743
 24 Cu   -0.02282    0.04326   -0.09728
 25 Cu   -0.00250    0.03770   -0.08661
 26 Cu    0.07108   -0.05882   -0.05722
 27 Cu   -0.01288    0.01108   -0.17463
 28 Cu    0.02174    0.14230   -0.16472
 29 Cu   -0.04928   -0.03368    0.15790
 30 Cu    0.04579   -0.00431   -0.12401
 31 Cu   -0.01170   -0.01440   -0.07023
 32 Cu   -0.02638    0.03187    0.05666
 33 Cu   -0.01628    0.00271    0.10137
 34 Cu   -0.00032   -0.02360    0.03580
 35 Cu    0.01137    0.00668    0.06636
 36 Cu    0.01606   -0.01363   -0.13256
 37 Cu   -0.00557   -0.02738   -0.09808
 38 Cu   -0.04448    0.01845   -0.18939
 39 Cu   -0.04689    0.10395   -0.09038
 40 Cu    0.04015   -0.17598   -0.27258
 41 Cu    0.00607   -0.09622    0.03090
 42 Cu   -0.02633   -0.03590    0.17219
 43 Cu   -0.00442   -0.01160   -0.14686
 44 Cu    0.03286    0.03625    0.10766
 45 Cu   -0.01225   -0.00798    0.06525
 46 Cu   -0.00502    0.00340    0.08165
 47 Cu   -0.00688   -0.02480   -0.08715
 48 Cu    0.06361    0.05737   -0.15557
 49 Cu    0.04893    0.02758   -0.04430
 50 Cu   -0.07119   -0.00132   -0.13439
 51 Cu   -0.02412   -0.08496    0.00897
 52 Cu   -0.00809   -0.00613    0.07994
 53 Cu   -0.00020    0.04192   -0.08289
 54 Cl   -0.47398    0.10268    0.00772
 55 Cl    0.39476   -0.04793   -0.03060
 56 Cl   -0.02467    0.12982   -0.17792
 57 Cl   -0.15769    0.94577    0.30227
 58 Cl    0.03290    0.54115    0.58355
 59 Cl   -0.08885    1.00674   -0.01319
 60 Cl    0.16205   -0.84264   -0.23294
 61 Cl    0.10190    0.14149    0.31853
 62 Cl    0.04345   -1.32827    0.31118
 63 Cl   -0.06213   -0.46568   -0.41802
 64 Cl    0.11164    0.58972   -0.56415
 65 Cl   -0.06320   -0.60378    0.46373
 66 Cl    0.51084   -0.09040    0.29531
 67 Cl   -0.43339    0.03478   -0.18036
 68 Cl    0.01705   -0.06793   -0.15067
 69 Cl    0.02525    0.10041    0.26809

System changes: positions 

Initializing position-dependent things.

Density initialized from wave functions
                                     
                                     
                                     
                                     
           Cl     Cl    Cl           
                                     
               Cl       Cl           
        Cl Cu  ClCu  Cl Cu           
                                     
         Cu    Cu    CCu    Cu       
             Cu    Cu     Cu         
       Cu     Cu    Cu               
           Cu    CCu    Cu           
         Cu    Cu    CCu    Cu       
                                     
       Cu    CCu    Cu    Cu         
           Cu    CCu    Cu           
               Cu    Cu     Cu       
         Cu    Cu     Cu             
       Cu    CCu    Cu    Cu         
                                     
           Cu Cl  CuCl  Cu Cl        
           Cl      Cl                
                                     
          Cl     Cl    Cl            
                                     
                                     
                                     
                                     

Positions:
   0 Cu     1.871325    1.843193   10.095612    ( 0.0000,  0.0000,  0.0000)
   1 Cu     0.570070    0.529807   11.899200    ( 0.0000,  0.0000,  0.0000)
   2 Cu     3.203144    0.547162   11.877165    ( 0.0000,  0.0000,  0.0000)
   3 Cu     1.887313    1.839491   13.711271    ( 0.0000,  0.0000,  0.0000)
   4 Cu     0.582464    0.526359   15.533471    ( 0.0000,  0.0000,  0.0000)
   5 Cu     3.187681    0.525280   15.526582    ( 0.0000,  0.0000,  0.0000)
   6 Cu     1.888972    1.845207   17.348320    ( 0.0000,  0.0000,  0.0000)
   7 Cu     0.570590    0.556856   19.175067    ( 0.0000,  0.0000,  0.0000)
   8 Cu     3.191204    0.522949   19.127849    ( 0.0000,  0.0000,  0.0000)
   9 Cu     0.551501    3.129903   11.896817    ( 0.0000,  0.0000,  0.0000)
  10 Cu     0.581309    3.147633   15.524640    ( 0.0000,  0.0000,  0.0000)
  11 Cu     0.577896    3.223972   19.133491    ( 0.0000,  0.0000,  0.0000)
  12 Cu     7.113222    1.841565   10.022580    ( 0.0000,  0.0000,  0.0000)
  13 Cu     5.800071    0.533011   11.879969    ( 0.0000,  0.0000,  0.0000)
  14 Cu     7.109326    1.833751   13.723150    ( 0.0000,  0.0000,  0.0000)
  15 Cu     5.803607    0.519272   15.533691    ( 0.0000,  0.0000,  0.0000)
  16 Cu     7.123800    1.830636   17.326335    ( 0.0000,  0.0000,  0.0000)
  17 Cu     5.810692    0.528129   19.182361    ( 0.0000,  0.0000,  0.0000)
  18 Cu     4.503357    1.828202    9.988894    ( 0.0000,  0.0000,  0.0000)
  19 Cu     4.507452    4.413502   10.041405    ( 0.0000,  0.0000,  0.0000)
  20 Cu     3.210693    3.134310   11.873346    ( 0.0000,  0.0000,  0.0000)
  21 Cu     5.806399    3.119485   11.860309    ( 0.0000,  0.0000,  0.0000)
  22 Cu     4.502850    1.837941   13.724091    ( 0.0000,  0.0000,  0.0000)
  23 Cu     4.501614    4.445105   13.711242    ( 0.0000,  0.0000,  0.0000)
  24 Cu     3.187204    3.151883   15.530446    ( 0.0000,  0.0000,  0.0000)
  25 Cu     5.805962    3.151607   15.533774    ( 0.0000,  0.0000,  0.0000)
  26 Cu     4.486462    1.851164   17.349001    ( 0.0000,  0.0000,  0.0000)
  27 Cu     4.475199    4.454148   17.361743    ( 0.0000,  0.0000,  0.0000)
  28 Cu     3.183060    3.177564   19.231291    ( 0.0000,  0.0000,  0.0000)
  29 Cu     5.817149    3.144502   19.136134    ( 0.0000,  0.0000,  0.0000)
  30 Cu     1.873919    4.424288   10.093188    ( 0.0000,  0.0000,  0.0000)
  31 Cu     1.877346    7.078693   10.059849    ( 0.0000,  0.0000,  0.0000)
  32 Cu     0.574085    5.771079   11.903961    ( 0.0000,  0.0000,  0.0000)
  33 Cu     3.196140    5.748230   11.881992    ( 0.0000,  0.0000,  0.0000)
  34 Cu     1.884742    4.445454   13.707917    ( 0.0000,  0.0000,  0.0000)
  35 Cu     1.887937    7.075498   13.713768    ( 0.0000,  0.0000,  0.0000)
  36 Cu     0.582785    5.759264   15.522724    ( 0.0000,  0.0000,  0.0000)
  37 Cu     3.188483    5.754671   15.521823    ( 0.0000,  0.0000,  0.0000)
  38 Cu     1.880735    4.466054   17.382688    ( 0.0000,  0.0000,  0.0000)
  39 Cu     1.892434    7.060268   17.353878    ( 0.0000,  0.0000,  0.0000)
  40 Cu     0.577467    5.728958   19.185223    ( 0.0000,  0.0000,  0.0000)
  41 Cu     3.180761    5.733036   19.232382    ( 0.0000,  0.0000,  0.0000)
  42 Cu     7.114799    4.369690   10.123959    ( 0.0000,  0.0000,  0.0000)
  43 Cu     7.114707    7.050900   10.046515    ( 0.0000,  0.0000,  0.0000)
  44 Cu     5.801640    5.756349   11.891604    ( 0.0000,  0.0000,  0.0000)
  45 Cu     7.112223    4.449741   13.716874    ( 0.0000,  0.0000,  0.0000)
  46 Cu     7.109392    7.068458   13.712479    ( 0.0000,  0.0000,  0.0000)
  47 Cu     5.803273    5.752551   15.535209    ( 0.0000,  0.0000,  0.0000)
  48 Cu     7.147810    4.460991   17.342408    ( 0.0000,  0.0000,  0.0000)
  49 Cu     7.119815    7.066004   17.334410    ( 0.0000,  0.0000,  0.0000)
  50 Cu     5.818216    5.733599   19.119195    ( 0.0000,  0.0000,  0.0000)
  51 Cu     4.498222    7.085493   10.104593    ( 0.0000,  0.0000,  0.0000)
  52 Cu     4.502639    7.069821   13.719951    ( 0.0000,  0.0000,  0.0000)
  53 Cu     4.487468    7.051459   17.358427    ( 0.0000,  0.0000,  0.0000)
  54 Cl     2.831621    4.406555   21.253236    ( 0.0000,  0.0000,  0.0000)
  55 Cl     4.821794    3.199947    8.009913    ( 0.0000,  0.0000,  0.0000)
  56 Cl     1.898607    5.742822    8.087534    ( 0.0000,  0.0000,  0.0000)
  57 Cl     0.559821    2.288108   21.148255    ( 0.0000,  0.0000,  0.0000)
  58 Cl     5.809399    7.070115   21.251178    ( 0.0000,  0.0000,  0.0000)
  59 Cl     6.989690    0.869832    8.033228    ( 0.0000,  0.0000,  0.0000)
  60 Cl     7.146335    5.335889    8.120354    ( 0.0000,  0.0000,  0.0000)
  61 Cl     5.811707    1.873835   21.223148    ( 0.0000,  0.0000,  0.0000)
  62 Cl     0.603368    6.790751   21.107073    ( 0.0000,  0.0000,  0.0000)
  63 Cl     1.768331    0.429427    7.896208    ( 0.0000,  0.0000,  0.0000)
  64 Cl     4.522730    5.809126    7.993191    ( 0.0000,  0.0000,  0.0000)
  65 Cl     3.184756    1.740231   21.230907    ( 0.0000,  0.0000,  0.0000)
  66 Cl     6.107928    4.539733   21.180059    ( 0.0000,  0.0000,  0.0000)
  67 Cl     1.539803    2.990731    8.052952    ( 0.0000,  0.0000,  0.0000)
  68 Cl     4.384481    0.440225    7.942192    ( 0.0000,  0.0000,  0.0000)
  69 Cl     3.218215    7.188374   21.191683    ( 0.0000,  0.0000,  0.0000)

Unit cell:
           periodic     x           y           z      points  spacing
  1. axis:    yes    7.851007    0.000000    0.000000    45     0.1655
  2. axis:    yes    2.617002    7.851007    0.000000    48     0.1636
  3. axis:    yes    0.000000    0.000000   30.683867   175     0.1753

  Lengths:   7.851007   8.275688  30.683867
  Angles:   90.000000  90.000000  71.565053

Effective grid spacing dv^(1/3) = 0.1710

     iter     time        total  log10-change:
                         energy  eigst   dens
iter:   1 16:19:36 -4677.716230  -1.29
iter:   2 16:20:35 -4666.149311  -1.35  -1.60
iter:   3 16:21:34 -4660.354287  -2.54  -1.75
iter:   4 16:22:32 -4659.763647  -3.33  -2.12
iter:   5 16:23:30 -4659.612688  -3.77  -2.34
iter:   6 16:24:19 -4659.560731c -3.42  -2.41
iter:   7 16:25:07 -4659.439105c -3.54  -2.50
iter:   8 16:25:55 -4659.417319c -3.88  -2.76
iter:   9 16:26:43 -4659.432349c -4.20  -2.93
iter:  10 16:27:32 -4659.426364c -4.88  -2.94
iter:  11 16:28:20 -4659.422755c -5.42  -3.02
iter:  12 16:29:08 -4659.408573c -4.38  -3.09
iter:  13 16:30:04 -4659.409245c -5.77  -3.57
iter:  14 16:31:13 -4659.409299c -6.21  -3.62
iter:  15 16:32:27 -4659.409610c -5.71  -3.69
iter:  16 16:33:30 -4659.409306c -6.50  -3.93
iter:  17 16:34:30 -4659.408844c -7.06  -3.99
iter:  18 16:35:29 -4659.409015c -7.47c -4.10c

Converged after 18 iterations.

Dipole moment: (-17.119595, -41.790788, 0.007407) |e|*Ang

Energy contributions relative to reference atoms: (reference = -2632037.589752)

Kinetic:       +613.628856
Potential:     -616.502182
External:        +0.000000
XC:            -4655.511422
Entropy (-ST):   -0.806832
Local:           -0.620852
--------------------------
Free energy:   -4659.812431
Extrapolated:  -4659.409015

Showing only first 2 kpts
 Kpt  Band  Eigenvalues  Occupancy
  0   351      0.34207    1.16593
  0   352      0.36033    1.07603
  0   353      0.45965    0.60270
  0   354      0.50165    0.44164

  1   351      0.40363    0.86059
  1   352      0.43680    0.70302
  1   353      0.48064    0.51814
  1   354      0.51799    0.38799


Fermi level: 0.37556

No gap

Forces in eV/Ang:
  0 Cu    0.00691    0.02488   -0.10270
  1 Cu   -0.02406   -0.05412   -0.05569
  2 Cu    0.01959   -0.06548   -0.06241
  3 Cu   -0.00151   -0.01901    0.02254
  4 Cu   -0.00187   -0.00355   -0.05051
  5 Cu    0.00495    0.00540   -0.02913
  6 Cu   -0.01695   -0.02594    0.03479
  7 Cu    0.00509    0.04533    0.06094
  8 Cu   -0.00128    0.02515   -0.06048
  9 Cu    0.04305    0.00100    0.03508
 10 Cu   -0.00645   -0.01634   -0.04980
 11 Cu   -0.02288   -0.20153   -0.10377
 12 Cu    0.03951    0.06233    0.36224
 13 Cu   -0.00528   -0.07952   -0.05887
 14 Cu   -0.00063   -0.01746    0.05004
 15 Cu   -0.00047    0.01413   -0.03799
 16 Cu   -0.04274   -0.05094    0.12068
 17 Cu    0.00336    0.02515    0.02315
 18 Cu   -0.05247   -0.04686   -0.09781
 19 Cu   -0.01399    0.03074   -0.01663
 20 Cu   -0.02962    0.01972    0.03923
 21 Cu   -0.01786   -0.03151    0.14131
 22 Cu   -0.00161   -0.01139    0.01809
 23 Cu    0.00520    0.00602   -0.00551
 24 Cu   -0.00518   -0.01203   -0.03386
 25 Cu    0.01416   -0.00947   -0.00899
 26 Cu    0.05830   -0.01878    0.09172
 27 Cu    0.02797   -0.03170   -0.00328
 28 Cu    0.02350   -0.02991   -0.00029
 29 Cu   -0.00818    0.01604    0.18371
 30 Cu    0.00919    0.00119   -0.18385
 31 Cu   -0.00792   -0.00104   -0.06276
 32 Cu   -0.00010    0.02259   -0.06440
 33 Cu   -0.01765   -0.00452   -0.03613
 34 Cu   -0.00757    0.00891   -0.02759
 35 Cu    0.00083   -0.00987    0.00486
 36 Cu    0.00026    0.02348   -0.07036
 37 Cu   -0.00433    0.01542   -0.03554
 38 Cu    0.06937    0.00776   -0.16800
 39 Cu   -0.00126    0.08477    0.05792
 40 Cu   -0.03940   -0.05793   -0.42952
 41 Cu    0.04242    0.07232    0.11518
 42 Cu    0.01038    0.15184    0.07697
 43 Cu   -0.01501   -0.01037   -0.16539
 44 Cu    0.01039    0.02454   -0.02603
 45 Cu   -0.00314    0.01026    0.00663
 46 Cu    0.00010    0.00500    0.02805
 47 Cu    0.00662    0.01837   -0.04581
 48 Cu   -0.09733   -0.03289   -0.05615
 49 Cu    0.02125    0.06819    0.06541
 50 Cu   -0.02069   -0.00551    0.13470
 51 Cu   -0.00750   -0.04484    0.05015
 52 Cu   -0.00529   -0.00383    0.00417
 53 Cu   -0.02155    0.03804    0.06107
 54 Cl    0.08846   -0.13732   -0.17198
 55 Cl   -0.10456    0.29156    0.14173
 56 Cl   -0.04238    0.30392    0.01929
 57 Cl   -0.08794    0.42294    0.10199
 58 Cl    0.35235   -0.19456    0.38314
 59 Cl   -0.02138    0.26934   -0.23719
 60 Cl    0.08924   -0.42752   -0.05851
 61 Cl    0.06101   -0.35765    0.07259
 62 Cl    0.02040   -0.35411    0.33637
 63 Cl   -0.30152   -0.00156   -0.32231
 64 Cl    0.31925    0.02966   -0.38233
 65 Cl   -0.26208    0.02871    0.26904
 66 Cl   -0.01795    0.37848   -0.03790
 67 Cl    0.04784   -0.26465    0.08555
 68 Cl    0.08212   -0.21452    0.09224
 69 Cl   -0.13684    0.24872    0.00948

System changes: positions 

Initializing position-dependent things.

Density initialized from wave functions
                                     
                                     
                                     
                                     
           Cl     Cl    Cl           
                                     
               Cl       Cl           
        Cl    Cl Cu  Cl              
           Cu           Cu           
         Cu    Cu    CCu    Cu       
                                     
       Cu    CCu   CCu    Cu         
           Cu    CCu    Cu           
               Cu    Cu     Cu       
         Cu    Cu     Cu             
       Cu    CCu   CCu    Cu         
                                     
           Cu    CCu    Cu           
         Cu    Cu    CCu    Cu       
                                     
       Cu    CCu   CCu    Cu         
           Cu Cl        Cu           
                  Cu Cl   Cl         
           Cl       Cl               
                                     
          Cl     Cl    Cl            
                                     
                                     
                                     
                                     

Positions:
   0 Cu     1.876785    1.846945   10.089355    ( 0.0000,  0.0000,  0.0000)
   1 Cu     0.564833    0.524988   11.899634    ( 0.0000,  0.0000,  0.0000)
   2 Cu     3.205530    0.536893   11.878366    ( 0.0000,  0.0000,  0.0000)
   3 Cu     1.887489    1.837829   13.718344    ( 0.0000,  0.0000,  0.0000)
   4 Cu     0.583024    0.525422   15.517985    ( 0.0000,  0.0000,  0.0000)
   5 Cu     3.188728    0.526443   15.513832    ( 0.0000,  0.0000,  0.0000)
   6 Cu     1.882844    1.839760   17.339075    ( 0.0000,  0.0000,  0.0000)
   7 Cu     0.569643    0.562902   19.194984    ( 0.0000,  0.0000,  0.0000)
   8 Cu     3.192098    0.533920   19.114096    ( 0.0000,  0.0000,  0.0000)
   9 Cu     0.552625    3.124956   11.914656    ( 0.0000,  0.0000,  0.0000)
  10 Cu     0.582275    3.146858   15.508877    ( 0.0000,  0.0000,  0.0000)
  11 Cu     0.578905    3.204868   19.102535    ( 0.0000,  0.0000,  0.0000)
  12 Cu     7.113364    1.853523   10.073661    ( 0.0000,  0.0000,  0.0000)
  13 Cu     5.801072    0.519270   11.883462    ( 0.0000,  0.0000,  0.0000)
  14 Cu     7.108131    1.831983   13.737694    ( 0.0000,  0.0000,  0.0000)
  15 Cu     5.802453    0.520406   15.521708    ( 0.0000,  0.0000,  0.0000)
  16 Cu     7.119561    1.821371   17.333477    ( 0.0000,  0.0000,  0.0000)
  17 Cu     5.811770    0.529667   19.203131    ( 0.0000,  0.0000,  0.0000)
  18 Cu     4.495911    1.832934    9.981373    ( 0.0000,  0.0000,  0.0000)
  19 Cu     4.506055    4.406824   10.048658    ( 0.0000,  0.0000,  0.0000)
  20 Cu     3.206664    3.133649   11.891540    ( 0.0000,  0.0000,  0.0000)
  21 Cu     5.807412    3.109274   11.892775    ( 0.0000,  0.0000,  0.0000)
  22 Cu     4.503114    1.837859   13.731566    ( 0.0000,  0.0000,  0.0000)
  23 Cu     4.502826    4.444053   13.713465    ( 0.0000,  0.0000,  0.0000)
  24 Cu     3.185039    3.153115   15.519120    ( 0.0000,  0.0000,  0.0000)
  25 Cu     5.807761    3.152987   15.526586    ( 0.0000,  0.0000,  0.0000)
  26 Cu     4.496880    1.847383   17.348029    ( 0.0000,  0.0000,  0.0000)
  27 Cu     4.477915    4.451251   17.345107    ( 0.0000,  0.0000,  0.0000)
  28 Cu     3.186184    3.184193   19.227569    ( 0.0000,  0.0000,  0.0000)
  29 Cu     5.810723    3.147077   19.165764    ( 0.0000,  0.0000,  0.0000)
  30 Cu     1.880101    4.420804   10.065837    ( 0.0000,  0.0000,  0.0000)
  31 Cu     1.875234    7.077253   10.041980    ( 0.0000,  0.0000,  0.0000)
  32 Cu     0.572198    5.775457   11.903337    ( 0.0000,  0.0000,  0.0000)
  33 Cu     3.191743    5.747756   11.888624    ( 0.0000,  0.0000,  0.0000)
  34 Cu     1.883716    4.444890   13.706742    ( 0.0000,  0.0000,  0.0000)
  35 Cu     1.889240    7.075015   13.719808    ( 0.0000,  0.0000,  0.0000)
  36 Cu     0.584219    5.761582   15.503177    ( 0.0000,  0.0000,  0.0000)
  37 Cu     3.187422    5.754823   15.509835    ( 0.0000,  0.0000,  0.0000)
  38 Cu     1.885769    4.469682   17.344535    ( 0.0000,  0.0000,  0.0000)
  39 Cu     1.889850    7.076167   17.348132    ( 0.0000,  0.0000,  0.0000)
  40 Cu     0.577129    5.710263   19.111426    ( 0.0000,  0.0000,  0.0000)
  41 Cu     3.185586    5.731227   19.244493    ( 0.0000,  0.0000,  0.0000)
  42 Cu     7.111674    4.381997   10.151428    ( 0.0000,  0.0000,  0.0000)
  43 Cu     7.112307    7.047875   10.008832    ( 0.0000,  0.0000,  0.0000)
  44 Cu     5.805990    5.762999   11.900364    ( 0.0000,  0.0000,  0.0000)
  45 Cu     7.110837    4.450693   13.722887    ( 0.0000,  0.0000,  0.0000)
  46 Cu     7.108854    7.069451   13.722845    ( 0.0000,  0.0000,  0.0000)
  47 Cu     5.803537    5.753418   15.522975    ( 0.0000,  0.0000,  0.0000)
  48 Cu     7.140849    4.460116   17.319320    ( 0.0000,  0.0000,  0.0000)
  49 Cu     7.125007    7.074633   17.333436    ( 0.0000,  0.0000,  0.0000)
  50 Cu     5.809420    5.730957   19.129653    ( 0.0000,  0.0000,  0.0000)
  51 Cu     4.495109    7.070457   10.113946    ( 0.0000,  0.0000,  0.0000)
  52 Cu     4.501173    7.068793   13.727144    ( 0.0000,  0.0000,  0.0000)
  53 Cu     4.484752    7.058812   17.354961    ( 0.0000,  0.0000,  0.0000)
  54 Cl     2.794358    4.377397   21.231509    ( 0.0000,  0.0000,  0.0000)
  55 Cl     4.849853    3.252968    8.026429    ( 0.0000,  0.0000,  0.0000)
  56 Cl     1.894969    5.801376    8.069746    ( 0.0000,  0.0000,  0.0000)
  57 Cl     0.540503    2.430914   21.186116    ( 0.0000,  0.0000,  0.0000)
  58 Cl     5.857330    7.067551   21.353193    ( 0.0000,  0.0000,  0.0000)
  59 Cl     6.975866    1.001544    8.000947    ( 0.0000,  0.0000,  0.0000)
  60 Cl     7.167971    5.201417    8.091416    ( 0.0000,  0.0000,  0.0000)
  61 Cl     5.823164    1.815872   21.263741    ( 0.0000,  0.0000,  0.0000)
  62 Cl     0.613181    6.634835   21.162178    ( 0.0000,  0.0000,  0.0000)
  63 Cl     1.725454    0.410443    7.814269    ( 0.0000,  0.0000,  0.0000)
  64 Cl     4.576511    5.839683    7.896452    ( 0.0000,  0.0000,  0.0000)
  65 Cl     3.143436    1.714939   21.303082    ( 0.0000,  0.0000,  0.0000)
  66 Cl     6.156625    4.612125   21.202208    ( 0.0000,  0.0000,  0.0000)
  67 Cl     1.501380    2.938827    8.046740    ( 0.0000,  0.0000,  0.0000)
  68 Cl     4.395730    0.401010    7.937417    ( 0.0000,  0.0000,  0.0000)
  69 Cl     3.202205    7.239291   21.216396    ( 0.0000,  0.0000,  0.0000)

Unit cell:
           periodic     x           y           z      points  spacing
  1. axis:    yes    7.851007    0.000000    0.000000    45     0.1655
  2. axis:    yes    2.617002    7.851007    0.000000    48     0.1636
  3. axis:    yes    0.000000    0.000000   30.683867   175     0.1753

  Lengths:   7.851007   8.275688  30.683867
  Angles:   90.000000  90.000000  71.565053

Effective grid spacing dv^(1/3) = 0.1710

     iter     time        total  log10-change:
                         energy  eigst   dens
iter:   1 16:37:02 -4669.493980  -1.50
iter:   2 16:38:01 -4666.670695  -1.63  -1.73
iter:   3 16:39:01 -4663.261523  -2.34  -1.76
iter:   4 16:40:00 -4660.037174  -3.17  -1.84
iter:   5 16:40:59 -4659.976601  -4.17  -2.42
iter:   6 16:41:58 -4659.901050c -3.54  -2.51
iter:   7 16:42:53 -4659.864040c -4.02  -2.66
iter:   8 16:43:41 -4659.875630c -4.20  -2.80
iter:   9 16:44:30 -4659.857933c -4.24  -2.81
iter:  10 16:45:18 -4659.850025c -5.19  -3.01
iter:  11 16:46:07 -4659.853089c -4.83  -3.07
iter:  12 16:46:55 -4659.846437c -5.03  -3.20
iter:  13 16:47:54 -4659.845394c -5.45  -3.47
iter:  14 16:48:53 -4659.845570c -6.39  -3.67
iter:  15 16:49:52 -4659.845512c -6.02  -3.73
iter:  16 16:51:00 -4659.845492c -6.15  -3.73
iter:  17 16:51:59 -4659.845734c -6.70  -3.92
iter:  18 16:52:58 -4659.845572c -6.59  -4.00c
iter:  19 16:53:57 -4659.845613c -7.06  -4.09c
iter:  20 16:54:55 -4659.845691c -7.40c -4.25c

Converged after 20 iterations.

Dipole moment: (-15.194489, -41.572569, 0.002584) |e|*Ang

Energy contributions relative to reference atoms: (reference = -2632037.589752)

Kinetic:       +600.239608
Potential:     -606.082520
External:        +0.000000
XC:            -4652.992185
Entropy (-ST):   -0.800885
Local:           -0.610151
--------------------------
Free energy:   -4660.246133
Extrapolated:  -4659.845691

Showing only first 2 kpts
 Kpt  Band  Eigenvalues  Occupancy
  0   351      0.28603    1.18465
  0   352      0.29845    1.12406
  0   353      0.39516    0.65579
  0   354      0.42573    0.52871

  1   351      0.34752    0.87992
  1   352      0.38664    0.69387
  1   353      0.44535    0.45599
  1   354      0.47290    0.36631


Fermi level: 0.32339

No gap

Forces in eV/Ang:
  0 Cu   -0.00600   -0.03886   -0.02788
  1 Cu    0.02039   -0.05421   -0.05527
  2 Cu    0.00620   -0.00414   -0.10147
  3 Cu    0.00130   -0.04738   -0.04468
  4 Cu   -0.01185    0.00036    0.04147
  5 Cu    0.00255    0.00560    0.06539
  6 Cu    0.01616   -0.00286    0.03711
  7 Cu    0.03039   -0.01149    0.09735
  8 Cu   -0.00907    0.01090    0.10518
  9 Cu    0.09706    0.05969   -0.01755
 10 Cu   -0.02487   -0.03046    0.04674
 11 Cu   -0.02528   -0.19963   -0.04955
 12 Cu    0.02353   -0.10983    0.07200
 13 Cu   -0.03778   -0.05188   -0.08224
 14 Cu    0.01436   -0.03859   -0.04615
 15 Cu    0.00889    0.02129    0.02849
 16 Cu   -0.03576    0.00379    0.07530
 17 Cu   -0.01328   -0.05860    0.16224
 18 Cu   -0.02373   -0.09952   -0.11331
 19 Cu   -0.01602    0.11078    0.03316
 20 Cu   -0.03489    0.00424   -0.07845
 21 Cu   -0.06101    0.02715    0.03770
 22 Cu   -0.01744   -0.04092   -0.04371
 23 Cu   -0.00723    0.02998   -0.01938
 24 Cu    0.02913   -0.04882    0.01494
 25 Cu   -0.00483   -0.04257    0.02817
 26 Cu    0.01811    0.03802    0.10119
 27 Cu    0.04207   -0.00627    0.10284
 28 Cu    0.01693   -0.11796   -0.01971
 29 Cu    0.01820   -0.02129    0.22281
 30 Cu   -0.00760    0.05141   -0.18727
 31 Cu    0.01590    0.03692   -0.07829
 32 Cu    0.01394    0.00455   -0.09276
 33 Cu   -0.01474   -0.02915   -0.10121
 34 Cu   -0.00312    0.02951   -0.04280
 35 Cu   -0.01075   -0.01580   -0.05679
 36 Cu   -0.02003    0.03381    0.04587
 37 Cu    0.02048    0.04007    0.02606
 38 Cu    0.08785   -0.03535   -0.06474
 39 Cu    0.03883    0.03421    0.06653
 40 Cu   -0.03244    0.24611    0.06490
 41 Cu    0.01764    0.15858    0.12470
 42 Cu    0.01184    0.16227    0.05700
 43 Cu   -0.02481   -0.01958   -0.13087
 44 Cu   -0.00591   -0.00030   -0.07176
 45 Cu    0.00701    0.01725   -0.05403
 46 Cu    0.00474    0.00584   -0.04589
 47 Cu   -0.00341    0.04689    0.02291
 48 Cu   -0.13769   -0.08258   -0.01134
 49 Cu   -0.03621    0.04154    0.05424
 50 Cu    0.00581    0.04953    0.03460
 51 Cu   -0.00324   -0.02123   -0.06288
 52 Cu    0.00127   -0.00065   -0.06715
 53 Cu   -0.00579   -0.02617    0.09773
 54 Cl    0.52818    0.03533   -0.20794
 55 Cl   -0.48617    0.07078    0.12820
 56 Cl    0.07936    0.20283    0.25402
 57 Cl   -0.20204    0.13166    0.08605
 58 Cl    0.08096    0.30876    0.36345
 59 Cl   -0.10287    0.11337   -0.02774
 60 Cl    0.17856   -0.15899   -0.04952
 61 Cl   -0.01632   -0.21159   -0.25412
 62 Cl    0.20880   -0.10777   -0.04543
 63 Cl   -0.11505   -0.39954   -0.28903
 64 Cl    0.09077    0.44692   -0.38817
 65 Cl   -0.14592   -0.42250    0.20482
 66 Cl   -0.45518   -0.08545   -0.00384
 67 Cl    0.42075   -0.00248    0.07974
 68 Cl   -0.00430   -0.20825    0.29934
 69 Cl    0.00271    0.27657   -0.21329

System changes: positions 

Initializing position-dependent things.

Density initialized from wave functions
                                     
                                     
                                     
                                     
                  Cl     Cl          
           Cl                        
               Cl       Cl           
         Cl   Cl                     
           Cu    Cu  ClCu            
         Cu    Cu    CCu    Cu       
                                     
       Cu    CCu   CCu    Cu         
           Cu    CCu   CCu           
                                     
         Cu    Cu    CCu   Cu        
       Cu    CCu   CCu    Cu         
                                     
           Cu    CCu   CCu           
         Cu    Cu    CCu   Cu        
                                     
       Cu    CCu   CCu    Cu         
           Cu Cl        Cu           
                  Cu Cl   Cl         
           Cl       Cl               
                       Cl            
          Cl     Cl                  
                                     
                                     
                                     
                                     

Positions:
   0 Cu     1.881985    1.845009   10.083097    ( 0.0000,  0.0000,  0.0000)
   1 Cu     0.563156    0.513818   11.895518    ( 0.0000,  0.0000,  0.0000)
   2 Cu     3.208103    0.527254   11.868673    ( 0.0000,  0.0000,  0.0000)
   3 Cu     1.888013    1.829685   13.718791    ( 0.0000,  0.0000,  0.0000)
   4 Cu     0.582014    0.524674   15.508682    ( 0.0000,  0.0000,  0.0000)
   5 Cu     3.190201    0.528507   15.510241    ( 0.0000,  0.0000,  0.0000)
   6 Cu     1.879153    1.834027   17.330377    ( 0.0000,  0.0000,  0.0000)
   7 Cu     0.572786    0.565846   19.224987    ( 0.0000,  0.0000,  0.0000)
   8 Cu     3.191784    0.547639   19.110836    ( 0.0000,  0.0000,  0.0000)
   9 Cu     0.565945    3.128398   11.931120    ( 0.0000,  0.0000,  0.0000)
  10 Cu     0.579793    3.141929   15.500210    ( 0.0000,  0.0000,  0.0000)
  11 Cu     0.578751    3.165271   19.063490    ( 0.0000,  0.0000,  0.0000)
  12 Cu     7.114382    1.849909   10.127304    ( 0.0000,  0.0000,  0.0000)
  13 Cu     5.796895    0.499476   11.879207    ( 0.0000,  0.0000,  0.0000)
  14 Cu     7.108803    1.824949   13.745680    ( 0.0000,  0.0000,  0.0000)
  15 Cu     5.802322    0.524125   15.513807    ( 0.0000,  0.0000,  0.0000)
  16 Cu     7.111779    1.814935   17.344289    ( 0.0000,  0.0000,  0.0000)
  17 Cu     5.811019    0.521272   19.245176    ( 0.0000,  0.0000,  0.0000)
  18 Cu     4.486795    1.827675    9.963243    ( 0.0000,  0.0000,  0.0000)
  19 Cu     4.503581    4.408890   10.066494    ( 0.0000,  0.0000,  0.0000)
  20 Cu     3.198256    3.132713   11.899015    ( 0.0000,  0.0000,  0.0000)
  21 Cu     5.800660    3.102834   11.928210    ( 0.0000,  0.0000,  0.0000)
  22 Cu     4.500953    1.832167   13.733043    ( 0.0000,  0.0000,  0.0000)
  23 Cu     4.502933    4.447076   13.713291    ( 0.0000,  0.0000,  0.0000)
  24 Cu     3.187134    3.147612   15.510297    ( 0.0000,  0.0000,  0.0000)
  25 Cu     5.808642    3.148570   15.523372    ( 0.0000,  0.0000,  0.0000)
  26 Cu     4.508281    1.850247   17.354963    ( 0.0000,  0.0000,  0.0000)
  27 Cu     4.485774    4.448314   17.341309    ( 0.0000,  0.0000,  0.0000)
  28 Cu     3.190191    3.180571   19.216385    ( 0.0000,  0.0000,  0.0000)
  29 Cu     5.805954    3.148128   19.216782    ( 0.0000,  0.0000,  0.0000)
  30 Cu     1.886148    4.421488   10.020001    ( 0.0000,  0.0000,  0.0000)
  31 Cu     1.875210    7.082161   10.017046    ( 0.0000,  0.0000,  0.0000)
  32 Cu     0.572365    5.779987   11.893347    ( 0.0000,  0.0000,  0.0000)
  33 Cu     3.184901    5.743324   11.884471    ( 0.0000,  0.0000,  0.0000)
  34 Cu     1.882385    4.448267   13.700069    ( 0.0000,  0.0000,  0.0000)
  35 Cu     1.889269    7.072689   13.718208    ( 0.0000,  0.0000,  0.0000)
  36 Cu     0.582988    5.768328   15.490566    ( 0.0000,  0.0000,  0.0000)
  37 Cu     3.189295    5.760347   15.501713    ( 0.0000,  0.0000,  0.0000)
  38 Cu     1.901522    4.468685   17.299537    ( 0.0000,  0.0000,  0.0000)
  39 Cu     1.893092    7.094801   17.346682    ( 0.0000,  0.0000,  0.0000)
  40 Cu     0.574631    5.726639   19.055244    ( 0.0000,  0.0000,  0.0000)
  41 Cu     3.190992    5.744910   19.265887    ( 0.0000,  0.0000,  0.0000)
  42 Cu     7.108225    4.409854   10.189345    ( 0.0000,  0.0000,  0.0000)
  43 Cu     7.106608    7.043755    9.957286    ( 0.0000,  0.0000,  0.0000)
  44 Cu     5.809728    5.769933   11.902578    ( 0.0000,  0.0000,  0.0000)
  45 Cu     7.110430    4.453998   13.721570    ( 0.0000,  0.0000,  0.0000)
  46 Cu     7.108868    7.071207   13.726803    ( 0.0000,  0.0000,  0.0000)
  47 Cu     5.803098    5.760651   15.514704    ( 0.0000,  0.0000,  0.0000)
  48 Cu     7.117090    4.447991   17.293042    ( 0.0000,  0.0000,  0.0000)
  49 Cu     7.124109    7.087094   17.335349    ( 0.0000,  0.0000,  0.0000)
  50 Cu     5.801157    5.734073   19.138335    ( 0.0000,  0.0000,  0.0000)
  51 Cu     4.491645    7.052753   10.118298    ( 0.0000,  0.0000,  0.0000)
  52 Cu     4.499839    7.067634   13.725448    ( 0.0000,  0.0000,  0.0000)
  53 Cu     4.481861    7.061768   17.360877    ( 0.0000,  0.0000,  0.0000)
  54 Cl     2.816962    4.350644   21.186327    ( 0.0000,  0.0000,  0.0000)
  55 Cl     4.822534    3.316417    8.056703    ( 0.0000,  0.0000,  0.0000)
  56 Cl     1.905928    5.880522    8.079232    ( 0.0000,  0.0000,  0.0000)
  57 Cl     0.495708    2.605518   21.241200    ( 0.0000,  0.0000,  0.0000)
  58 Cl     5.908924    7.106782   21.511473    ( 0.0000,  0.0000,  0.0000)
  59 Cl     6.941167    1.168833    7.966504    ( 0.0000,  0.0000,  0.0000)
  60 Cl     7.212745    5.032028    8.050230    ( 0.0000,  0.0000,  0.0000)
  61 Cl     5.829088    1.734949   21.278253    ( 0.0000,  0.0000,  0.0000)
  62 Cl     0.654978    6.445049   21.209445    ( 0.0000,  0.0000,  0.0000)
  63 Cl     1.676589    0.342613    7.688715    ( 0.0000,  0.0000,  0.0000)
  64 Cl     4.638786    5.929681    7.739204    ( 0.0000,  0.0000,  0.0000)
  65 Cl     3.085436    1.629635   21.410699    ( 0.0000,  0.0000,  0.0000)
  66 Cl     6.154040    4.675579   21.232884    ( 0.0000,  0.0000,  0.0000)
  67 Cl     1.510209    2.883050    8.045686    ( 0.0000,  0.0000,  0.0000)
  68 Cl     4.404031    0.340374    7.967047    ( 0.0000,  0.0000,  0.0000)
  69 Cl     3.189526    7.323720   21.220681    ( 0.0000,  0.0000,  0.0000)

Unit cell:
           periodic     x           y           z      points  spacing
  1. axis:    yes    7.851007    0.000000    0.000000    45     0.1655
  2. axis:    yes    2.617002    7.851007    0.000000    48     0.1636
  3. axis:    yes    0.000000    0.000000   30.683867   175     0.1753

  Lengths:   7.851007   8.275688  30.683867
  Angles:   90.000000  90.000000  71.565053

Effective grid spacing dv^(1/3) = 0.1710

     iter     time        total  log10-change:
                         energy  eigst   dens
iter:   1 16:56:28 -4666.552360  -1.41
iter:   2 16:57:27 -4678.988213  -1.73  -1.83
iter:   3 16:58:21 -4661.367724  -2.19  -1.52
iter:   4 16:59:10 -4660.611733  -3.57  -2.13
iter:   5 16:59:59 -4660.508847  -3.89  -2.35
iter:   6 17:00:48 -4660.474802c -3.95  -2.48
iter:   7 17:01:36 -4660.435026c -3.48  -2.50
iter:   8 17:02:25 -4660.408519c -4.00  -2.62
iter:   9 17:03:23 -4660.419489c -4.08  -2.73
iter:  10 17:04:21 -4660.379680c -4.46  -2.73
iter:  11 17:05:20 -4660.377222c -4.80  -3.04
iter:  12 17:06:18 -4660.374791c -4.74  -3.22
iter:  13 17:07:17 -4660.373485c -5.40  -3.29
iter:  14 17:08:15 -4660.372451c -5.71  -3.48
iter:  15 17:09:14 -4660.372385c -6.01  -3.62
iter:  16 17:10:14 -4660.372582c -6.31  -3.74
iter:  17 17:11:13 -4660.372076c -5.98  -3.81
iter:  18 17:12:12 -4660.372015c -6.04  -3.96
iter:  19 17:13:11 -4660.372002c -6.87  -4.17c
iter:  20 17:14:10 -4660.372036c -7.40  -4.22c
iter:  21 17:15:08 -4660.372050c -7.06  -4.26c
iter:  22 17:16:08 -4660.372073c -7.20  -4.35c
iter:  23 17:17:07 -4660.372111c -7.87c -4.42c

Converged after 23 iterations.

Dipole moment: (-14.387128, -41.068073, 0.008979) |e|*Ang

Energy contributions relative to reference atoms: (reference = -2632037.589752)

Kinetic:       +589.125183
Potential:     -597.468483
External:        +0.000000
XC:            -4651.032641
Entropy (-ST):   -0.845624
Local:           -0.573358
--------------------------
Free energy:   -4660.794923
Extrapolated:  -4660.372111

Showing only first 2 kpts
 Kpt  Band  Eigenvalues  Occupancy
  0   351      0.17165    1.26717
  0   352      0.19224    1.16920
  0   353      0.25260    0.86977
  0   354      0.30458    0.62791

  1   351      0.24711    0.89687
  1   352      0.27617    0.75620
  1   353      0.30570    0.62310
  1   354      0.34578    0.46519


Fermi level: 0.22641

No gap

Forces in eV/Ang:
  0 Cu   -0.04793   -0.07756    0.00382
  1 Cu    0.04325   -0.01905   -0.04386
  2 Cu   -0.00244    0.04715   -0.10066
  3 Cu    0.00652   -0.04242   -0.07025
  4 Cu   -0.00519   -0.00743    0.09615
  5 Cu   -0.00797   -0.00911    0.10259
  6 Cu    0.04142   -0.00584    0.04230
  7 Cu    0.05445    0.01154   -0.00898
  8 Cu   -0.01329   -0.01440    0.20189
  9 Cu    0.07733    0.06159   -0.08811
 10 Cu   -0.01437   -0.01374    0.07244
 11 Cu   -0.00692   -0.02314    0.20462
 12 Cu    0.00921   -0.11802   -0.24982
 13 Cu   -0.04838    0.01580   -0.07701
 14 Cu    0.02466   -0.02756   -0.13737
 15 Cu    0.00898    0.00844    0.08081
 16 Cu   -0.03687    0.01462    0.04006
 17 Cu   -0.03371   -0.09317    0.15752
 18 Cu    0.01950   -0.07841   -0.10524
 19 Cu    0.00824    0.12513    0.05638
 20 Cu   -0.01780   -0.01991   -0.13481
 21 Cu   -0.05018    0.02978   -0.10082
 22 Cu   -0.03223   -0.04630   -0.09370
 23 Cu   -0.02644    0.02954   -0.01554
 24 Cu    0.04869   -0.04259    0.02667
 25 Cu   -0.03901   -0.04400   -0.00077
 26 Cu   -0.00548    0.05291    0.11192
 27 Cu    0.02609    0.01780    0.13343
 28 Cu   -0.01508   -0.14672   -0.05754
 29 Cu    0.03877   -0.04738    0.21704
 30 Cu   -0.02421    0.06242   -0.17220
 31 Cu    0.04436    0.11509    0.00985
 32 Cu    0.03281   -0.00296   -0.07983
 33 Cu   -0.01090   -0.04166   -0.12166
 34 Cu    0.01289    0.02739    0.00489
 35 Cu   -0.01759   -0.01797   -0.07982
 36 Cu   -0.03119    0.01104    0.14494
 37 Cu    0.04090    0.03418    0.07003
 38 Cu   -0.00773   -0.00867    0.13719
 39 Cu    0.03619   -0.03219    0.06206
 40 Cu   -0.03614    0.15567    0.32342
 41 Cu   -0.00969    0.17977    0.09221
 42 Cu   -0.00721    0.09286   -0.18112
 43 Cu   -0.03474   -0.12934    0.03844
 44 Cu   -0.02920   -0.00067   -0.07837
 45 Cu    0.01260    0.00956   -0.05820
 46 Cu    0.00103    0.00555   -0.08899
 47 Cu   -0.01725    0.03868    0.05822
 48 Cu   -0.03979   -0.04188    0.12707
 49 Cu   -0.05293    0.01010    0.05382
 50 Cu    0.07888    0.06272    0.04198
 51 Cu    0.00311    0.00820   -0.16078
 52 Cu    0.01054    0.00852   -0.08919
 53 Cu    0.00804   -0.05450    0.09591
 54 Cl    0.78582   -0.10662   -0.19796
 55 Cl   -0.72309    0.07929    0.12320
 56 Cl    0.10815    0.10410    0.35587
 57 Cl   -0.09972    0.13746   -0.14629
 58 Cl   -0.03124    0.40992    0.26581
 59 Cl   -0.02823    0.11384    0.21299
 60 Cl    0.05813   -0.12753    0.14135
 61 Cl   -0.08022   -0.10751   -0.45349
 62 Cl    0.19315   -0.00232   -0.35315
 63 Cl   -0.02812   -0.50819   -0.30122
 64 Cl    0.06357    0.52205   -0.40746
 65 Cl   -0.13426   -0.56019    0.23349
 66 Cl   -0.75212   -0.04400    0.00616
 67 Cl    0.65043   -0.00314    0.10196
 68 Cl   -0.04956   -0.11277    0.33495
 69 Cl    0.09833    0.18067   -0.30685

System changes: positions 

Initializing position-dependent things.

Density initialized from wave functions
                                      
                                      
                                      
                                      
                   Cl    Cl           
            Cl                        
                Cl      Cl            
         Cl                           
           Cu Cl  Cu  ClCu            
               CCu    Cu    Cu        
         Cu                           
        Cu    Cu    CCu   Cu          
           CCu    Cu    CCu           
                                      
         Cu    CCu    Cu    Cu        
             Cu     Cu     Cu         
        Cu    Cu     Cu               
           CCu    Cu    CCu           
         Cu    CCu    Cu    Cu        
                          Cu          
        Cu   CCu    CCu               
            CuCl  Cu     Cu           
                     Cl    Cl         
            Cl      Cl                
                        Cl            
          Cl     Cl                   
                                      
                                      
                                      
                                      

Positions:
   0 Cu     1.887185    1.843073   10.076839    ( 0.0000,  0.0000,  0.0000)
   1 Cu     0.561478    0.502648   11.891402    ( 0.0000,  0.0000,  0.0000)
   2 Cu     3.210676    0.517615   11.858980    ( 0.0000,  0.0000,  0.0000)
   3 Cu     1.888537    1.821542   13.719238    ( 0.0000,  0.0000,  0.0000)
   4 Cu     0.581004    0.523925   15.499380    ( 0.0000,  0.0000,  0.0000)
   5 Cu     3.191674    0.530571   15.506650    ( 0.0000,  0.0000,  0.0000)
   6 Cu     1.875462    1.828293   17.321679    ( 0.0000,  0.0000,  0.0000)
   7 Cu     0.575929    0.568790   19.254990    ( 0.0000,  0.0000,  0.0000)
   8 Cu     3.191470    0.561359   19.107576    ( 0.0000,  0.0000,  0.0000)
   9 Cu     0.579265    3.131840   11.947583    ( 0.0000,  0.0000,  0.0000)
  10 Cu     0.577311    3.137000   15.491542    ( 0.0000,  0.0000,  0.0000)
  11 Cu     0.578596    3.125674   19.024444    ( 0.0000,  0.0000,  0.0000)
  12 Cu     7.115401    1.846296   10.180947    ( 0.0000,  0.0000,  0.0000)
  13 Cu     5.792717    0.479682   11.874952    ( 0.0000,  0.0000,  0.0000)
  14 Cu     7.109475    1.817916   13.753666    ( 0.0000,  0.0000,  0.0000)
  15 Cu     5.802191    0.527844   15.505907    ( 0.0000,  0.0000,  0.0000)
  16 Cu     7.103996    1.808499   17.355100    ( 0.0000,  0.0000,  0.0000)
  17 Cu     5.810268    0.512877   19.287221    ( 0.0000,  0.0000,  0.0000)
  18 Cu     4.477678    1.822415    9.945114    ( 0.0000,  0.0000,  0.0000)
  19 Cu     4.501106    4.410956   10.084329    ( 0.0000,  0.0000,  0.0000)
  20 Cu     3.189847    3.131776   11.906489    ( 0.0000,  0.0000,  0.0000)
  21 Cu     5.793907    3.096394   11.963645    ( 0.0000,  0.0000,  0.0000)
  22 Cu     4.498791    1.826475   13.734520    ( 0.0000,  0.0000,  0.0000)
  23 Cu     4.503041    4.450099   13.713117    ( 0.0000,  0.0000,  0.0000)
  24 Cu     3.189229    3.142109   15.501474    ( 0.0000,  0.0000,  0.0000)
[...]
 37 Cu    0.01298    0.00483   -0.00045
 38 Cu   -0.00629   -0.00729    0.01251
 39 Cu    0.00039   -0.01437   -0.00681
 40 Cu    0.01355   -0.01126    0.00626
 41 Cu    0.00319    0.01018   -0.01351
 42 Cu    0.00764   -0.01280   -0.01697
 43 Cu   -0.00118   -0.00946    0.01406
 44 Cu    0.00108    0.00366   -0.00063
 45 Cu    0.00787    0.00468   -0.00601
 46 Cu    0.00177   -0.00135   -0.01888
 47 Cu    0.00447    0.01166    0.00182
 48 Cu    0.00589    0.00276    0.01399
 49 Cu    0.00641   -0.00569    0.00287
 50 Cu    0.01202   -0.00822   -0.00650
 51 Cu   -0.00221   -0.00442   -0.00992
 52 Cu   -0.00248   -0.00775   -0.00096
 53 Cu    0.01614    0.00623    0.00788
 54 Cl    0.00638    0.02121   -0.00103
 55 Cl   -0.00855   -0.00231   -0.01174
 56 Cl   -0.00346   -0.00547   -0.01167
 57 Cl   -0.00225   -0.00963    0.00187
 58 Cl    0.02891   -0.02985   -0.01215
 59 Cl    0.00764    0.01596    0.01886
 60 Cl    0.01246   -0.00561   -0.00920
 61 Cl   -0.00516   -0.00119    0.01741
 62 Cl    0.00491   -0.01642    0.01958
 63 Cl    0.00697   -0.00689   -0.01319
 64 Cl   -0.00750    0.02381   -0.00307
 65 Cl   -0.01857    0.01345    0.00783
 66 Cl    0.01053    0.00897    0.01034
 67 Cl   -0.00326   -0.00311    0.00472
 68 Cl   -0.00559    0.01837   -0.02371
 69 Cl    0.00615   -0.01398    0.02152

System changes: positions 

Initializing position-dependent things.

Density initialized from wave functions
                                      
                                      
                                      
                                      
                           Cl         
                                      
                                      
             Cl                       
             Cl                       
                      Cl              
               Cl        Cl           
        Cl Cu    Cu     Cu            
                  Cl                  
          Cu   CCu   CCu    Cu        
        Cu    Cu    CCu   Cu          
                                      
           CCu   CCu    CCu           
          Cu   CCu   CCu    Cu        
                                      
        Cu    Cu    CCu   Cu          
           CCu   CCu    CCu           
                                      
          Cu   CCu   CCu    Cu        
        Cu    Cu    CCu               
                          Cu          
            Cu    Cu     Cu Cl        
           Cl        Cl               
                                      
              Cl       Cl             
                       Cl             
                                      
                                      
         Cl                           
                                      
                                      
                                      
                                      

Positions:
   0 Cu     1.873255    1.829461   10.076834    ( 0.0000,  0.0000,  0.0000)
   1 Cu     0.538232    0.529126   11.839293    ( 0.0000,  0.0000,  0.0000)
   2 Cu     3.198388    0.513454   11.865204    ( 0.0000,  0.0000,  0.0000)
   3 Cu     1.867426    1.833181   13.689589    ( 0.0000,  0.0000,  0.0000)
   4 Cu     0.562138    0.523031   15.526788    ( 0.0000,  0.0000,  0.0000)
   5 Cu     3.182915    0.525460   15.529073    ( 0.0000,  0.0000,  0.0000)
   6 Cu     1.862373    1.835782   17.371815    ( 0.0000,  0.0000,  0.0000)
   7 Cu     0.556569    0.540390   19.284402    ( 0.0000,  0.0000,  0.0000)
   8 Cu     3.192507    0.517542   19.199963    ( 0.0000,  0.0000,  0.0000)
   9 Cu     0.541950    3.148468   11.819117    ( 0.0000,  0.0000,  0.0000)
  10 Cu     0.565941    3.141205   15.536578    ( 0.0000,  0.0000,  0.0000)
  11 Cu     0.590792    3.140854   19.338947    ( 0.0000,  0.0000,  0.0000)
  12 Cu     7.131818    1.825488    9.838408    ( 0.0000,  0.0000,  0.0000)
  13 Cu     5.818803    0.516313   11.812424    ( 0.0000,  0.0000,  0.0000)
  14 Cu     7.110735    1.834029   13.690191    ( 0.0000,  0.0000,  0.0000)
  15 Cu     5.810236    0.523087   15.532877    ( 0.0000,  0.0000,  0.0000)
  16 Cu     7.125752    1.822516   17.410821    ( 0.0000,  0.0000,  0.0000)
  17 Cu     5.834920    0.505628   19.303029    ( 0.0000,  0.0000,  0.0000)
  18 Cu     4.486657    1.813020   10.013377    ( 0.0000,  0.0000,  0.0000)
  19 Cu     4.490444    4.450872   10.087504    ( 0.0000,  0.0000,  0.0000)
  20 Cu     3.178894    3.145219   11.886037    ( 0.0000,  0.0000,  0.0000)
  21 Cu     5.822907    3.123386   11.827738    ( 0.0000,  0.0000,  0.0000)
  22 Cu     4.506779    1.829302   13.694480    ( 0.0000,  0.0000,  0.0000)
  23 Cu     4.490687    4.449402   13.694914    ( 0.0000,  0.0000,  0.0000)
  24 Cu     3.179242    3.140916   15.528915    ( 0.0000,  0.0000,  0.0000)
  25 Cu     5.813378    3.135231   15.540305    ( 0.0000,  0.0000,  0.0000)
  26 Cu     4.515125    1.813081   17.370286    ( 0.0000,  0.0000,  0.0000)
  27 Cu     4.486635    4.446329   17.340785    ( 0.0000,  0.0000,  0.0000)
  28 Cu     3.188548    3.134670   19.142540    ( 0.0000,  0.0000,  0.0000)
  29 Cu     5.805139    3.120934   19.224640    ( 0.0000,  0.0000,  0.0000)
  30 Cu     1.874630    4.464124    9.987835    ( 0.0000,  0.0000,  0.0000)
  31 Cu     1.846643    7.086968    9.898127    ( 0.0000,  0.0000,  0.0000)
  32 Cu     0.557106    5.765893   11.812120    ( 0.0000,  0.0000,  0.0000)
  33 Cu     3.157674    5.776014   11.851232    ( 0.0000,  0.0000,  0.0000)
  34 Cu     1.856154    4.452725   13.688247    ( 0.0000,  0.0000,  0.0000)
  35 Cu     1.864131    7.065375   13.694979    ( 0.0000,  0.0000,  0.0000)
  36 Cu     0.561591    5.755009   15.535870    ( 0.0000,  0.0000,  0.0000)
  37 Cu     3.165428    5.761442   15.530520    ( 0.0000,  0.0000,  0.0000)
  38 Cu     1.850644    4.461757   17.400298    ( 0.0000,  0.0000,  0.0000)
  39 Cu     1.860706    7.071143   17.414355    ( 0.0000,  0.0000,  0.0000)
  40 Cu     0.533079    5.759530   19.346837    ( 0.0000,  0.0000,  0.0000)
  41 Cu     3.174170    5.774115   19.235196    ( 0.0000,  0.0000,  0.0000)
  42 Cu     7.092308    4.449724    9.908235    ( 0.0000,  0.0000,  0.0000)
  43 Cu     7.124682    7.055558    9.959100    ( 0.0000,  0.0000,  0.0000)
  44 Cu     5.813257    5.751593   11.858111    ( 0.0000,  0.0000,  0.0000)
  45 Cu     7.105986    4.445190   13.691088    ( 0.0000,  0.0000,  0.0000)
  46 Cu     7.113343    7.064743   13.698822    ( 0.0000,  0.0000,  0.0000)
  47 Cu     5.798785    5.756688   15.533591    ( 0.0000,  0.0000,  0.0000)
  48 Cu     7.129575    4.439725   17.400464    ( 0.0000,  0.0000,  0.0000)
  49 Cu     7.126756    7.060761   17.374783    ( 0.0000,  0.0000,  0.0000)
  50 Cu     5.787566    5.758047   19.142756    ( 0.0000,  0.0000,  0.0000)
  51 Cu     4.487433    7.068632   10.024690    ( 0.0000,  0.0000,  0.0000)
  52 Cu     4.487373    7.066039   13.690057    ( 0.0000,  0.0000,  0.0000)
  53 Cu     4.469060    7.076230   17.367204    ( 0.0000,  0.0000,  0.0000)
  54 Cl     2.332062    4.379663   20.916191    ( 0.0000,  0.0000,  0.0000)
  55 Cl     5.380885    3.185904    8.335545    ( 0.0000,  0.0000,  0.0000)
  56 Cl     3.344902    5.695961    8.412362    ( 0.0000,  0.0000,  0.0000)
  57 Cl     0.269186    1.787907   21.201618    ( 0.0000,  0.0000,  0.0000)
  58 Cl     6.450186    7.830993   24.318643    ( 0.0000,  0.0000,  0.0000)
  59 Cl     6.905574    0.473498    7.955297    ( 0.0000,  0.0000,  0.0000)
  60 Cl     7.424988    5.797519    8.051928    ( 0.0000,  0.0000,  0.0000)
  61 Cl     4.359687    1.878994   20.807418    ( 0.0000,  0.0000,  0.0000)
  62 Cl     0.807005    7.095697   21.225637    ( 0.0000,  0.0000,  0.0000)
  63 Cl     1.285658   -0.124584    4.929268    ( 0.0000,  0.0000,  0.0000)
  64 Cl     5.157272    6.152484    4.953177    ( 0.0000,  0.0000,  0.0000)
  65 Cl     2.530611    1.514359   24.371227    ( 0.0000,  0.0000,  0.0000)
  66 Cl     6.607839    4.512762   20.922422    ( 0.0000,  0.0000,  0.0000)
  67 Cl     1.097571    3.073338    8.277408    ( 0.0000,  0.0000,  0.0000)
  68 Cl     3.079592    0.558587    8.423891    ( 0.0000,  0.0000,  0.0000)
  69 Cl     4.612156    7.027374   20.810642    ( 0.0000,  0.0000,  0.0000)

Unit cell:
           periodic     x           y           z      points  spacing
  1. axis:    yes    7.851007    0.000000    0.000000    45     0.1655
  2. axis:    yes    2.617002    7.851007    0.000000    48     0.1636
  3. axis:    yes    0.000000    0.000000   30.683867   175     0.1753

  Lengths:   7.851007   8.275688  30.683867
  Angles:   90.000000  90.000000  71.565053

Effective grid spacing dv^(1/3) = 0.1710

     iter     time        total  log10-change:
                         energy  eigst   dens
iter:   1 06:45:05 -4670.577336  -3.16
iter:   2 06:45:58 -4670.576132  -4.42  -3.22
iter:   3 06:46:56 -4670.574938c -5.17  -3.34
iter:   4 06:47:48 -4670.578162c -4.82  -3.42
iter:   5 06:48:40 -4670.573703c -5.14  -3.35
iter:   6 06:49:35 -4670.573325c -5.09  -3.65
iter:   7 06:50:28 -4670.573305c -6.18  -3.91
iter:   8 06:51:22 -4670.573048c -5.84  -4.02c
iter:   9 06:52:26 -4670.573017c -6.88  -4.30c
iter:  10 06:53:21 -4670.572921c -6.67  -4.36c
iter:  11 06:54:27 -4670.572921c -7.30  -4.53c
iter:  12 06:55:28 -4670.572927c -7.55c -4.62c

Converged after 12 iterations.

Dipole moment: (-9.523174, -27.883311, -0.001014) |e|*Ang

Energy contributions relative to reference atoms: (reference = -2632037.589752)

Kinetic:       +561.799391
Potential:     -581.417052
External:        +0.000000
XC:            -4649.952983
Entropy (-ST):   -0.594643
Local:           -0.704961
--------------------------
Free energy:   -4670.870249
Extrapolated:  -4670.572927

Showing only first 2 kpts
 Kpt  Band  Eigenvalues  Occupancy
  0   351     -0.20655    1.84919
  0   352     -0.13128    1.70485
  0   353     -0.08394    1.56504
  0   354     -0.01101    1.26875

  1   351     -0.12643    1.69244
  1   352      0.09789    0.73733
  1   353      0.13681    0.56701
  1   354      0.20158    0.34307


Fermi level: 0.04410

No gap

Forces in eV/Ang:
  0 Cu    0.00143    0.00093   -0.00484
  1 Cu   -0.00024    0.00120    0.00104
  2 Cu   -0.00862   -0.00583   -0.01995
  3 Cu   -0.00118   -0.00926   -0.00112
  4 Cu   -0.01521   -0.00392    0.01450
  5 Cu    0.00547   -0.00611    0.01159
  6 Cu   -0.01155    0.00021    0.00559
  7 Cu   -0.01480   -0.00450   -0.00773
  8 Cu   -0.00550    0.00372    0.02080
  9 Cu   -0.00753   -0.00099   -0.00312
 10 Cu   -0.00391    0.00354   -0.00908
 11 Cu   -0.01399   -0.00161    0.01769
 12 Cu   -0.00984    0.00368    0.01342
 13 Cu   -0.00637    0.00275   -0.00730
 14 Cu   -0.00612   -0.00065    0.00237
 15 Cu    0.00358   -0.00211    0.00588
 16 Cu   -0.00122    0.00533    0.00718
 17 Cu   -0.00138    0.00181   -0.00442
 18 Cu    0.00286   -0.00661   -0.00786
 19 Cu   -0.00503   -0.01014    0.00667
 20 Cu    0.00116   -0.01126   -0.00414
 21 Cu    0.00998    0.00654   -0.00056
 22 Cu   -0.00655   -0.00602   -0.00761
 23 Cu    0.00611    0.00245    0.01044
 24 Cu   -0.00450   -0.00965   -0.00599
 25 Cu   -0.00795    0.00177   -0.00603
 26 Cu   -0.00347    0.00923    0.00304
 27 Cu    0.00196    0.00807    0.00499
 28 Cu   -0.00002    0.00973    0.00093
 29 Cu   -0.00441   -0.01133    0.00332
 30 Cu   -0.00435    0.01545   -0.00177
 31 Cu   -0.01451   -0.00532    0.01500
 32 Cu    0.00298   -0.00379    0.00505
 33 Cu    0.00125   -0.00423   -0.00878
 34 Cu    0.01376    0.00726   -0.00465
 35 Cu   -0.00249    0.00520   -0.01477
 36 Cu    0.00621   -0.00613    0.00592
 37 Cu    0.00519   -0.00014    0.00751
 38 Cu   -0.00621   -0.00724    0.00476
 39 Cu    0.00040   -0.00116   -0.00039
 40 Cu    0.01459   -0.00037    0.01258
 41 Cu    0.00006    0.01450   -0.00926
 42 Cu    0.00914   -0.00484   -0.01758
 43 Cu    0.00497   -0.00634    0.00078
 44 Cu    0.01038    0.00567    0.00247
 45 Cu    0.00918    0.00234    0.00224
 46 Cu    0.01149    0.00688   -0.01332
 47 Cu    0.00947    0.00873    0.00164
 48 Cu    0.00095   -0.00848    0.00828
 49 Cu    0.00789    0.00021    0.00517
 50 Cu    0.00275    0.00076   -0.00281
 51 Cu    0.00254    0.00032   -0.01189
 52 Cu   -0.00548   -0.00161    0.00273
 53 Cu    0.00790    0.00947    0.01055
 54 Cl    0.00285    0.00488   -0.00432
 55 Cl   -0.00834   -0.00031   -0.00776
 56 Cl    0.00000   -0.00314   -0.01697
 57 Cl    0.00126    0.00522   -0.00342
 58 Cl    0.00135   -0.00069   -0.02340
 59 Cl    0.00731    0.01700    0.01552
 60 Cl    0.01178   -0.00684   -0.00944
 61 Cl   -0.00660   -0.00027    0.01442
 62 Cl   -0.00120   -0.00415    0.00657
 63 Cl    0.00014    0.00291   -0.00286
 64 Cl    0.00251    0.00556    0.00448
 65 Cl    0.00084   -0.00611   -0.00519
 66 Cl    0.01937   -0.00818    0.01066
 67 Cl   -0.01677    0.00308   -0.00983
 68 Cl    0.00147    0.00858   -0.02799
 69 Cl    0.00335   -0.00697    0.02170

Timing:                                      incl.     excl.
-------------------------------------------------------------------
Density initialized from wave functions:   266.521   266.518   0.5% |
 Symmetrize density:                         0.003     0.003   0.0% |
Forces:                                   1198.710  1198.710   2.1% ||
Hamiltonian:                               436.601     0.995   0.0% |
 Atomic:                                    20.379     5.096   0.0% |
  XC Correction:                            15.283    15.283   0.0% |
 Calculate atomic Hamiltonians:            112.926   112.926   0.2% |
 Communicate:                                5.277     5.277   0.0% |
 Initialize Hamiltonian:                     0.001     0.001   0.0% |
 Poisson:                                    0.300     0.300   0.0% |
 XC 3D grid:                               296.723    47.674   0.1% |
  VdW-DF integral:                         249.049     8.198   0.0% |
   Convolution:                             16.870    16.870   0.0% |
   FFT:                                      8.832     8.832   0.0% |
   gather:                                  85.329    85.329   0.1% |
   hmm1:                                     5.085     5.085   0.0% |
   hmm2:                                    12.279    12.279   0.0% |
   iFFT:                                     8.878     8.878   0.0% |
   potential:                               98.579     0.989   0.0% |
    collect:                                14.582    14.582   0.0% |
    p1:                                     47.546    47.546   0.1% |
    p2:                                     17.805    17.805   0.0% |
    sum:                                    17.657    17.657   0.0% |
   splines:                                  5.000     5.000   0.0% |
LCAO initialization:                       247.346     0.590   0.0% |
 LCAO eigensolver:                          14.308     0.003   0.0% |
  Blacs Orbital Layouts:                     0.832     0.001   0.0% |
   General diagonalize:                      0.820     0.820   0.0% |
   Redistribute coefs:                       0.006     0.006   0.0% |
   Send coefs to domains:                    0.006     0.006   0.0% |
  Calculate projections:                     0.006     0.006   0.0% |
  Distribute overlap matrix:                13.062     0.001   0.0% |
   Scalapack redistribute:                   0.015     0.015   0.0% |
   blocked summation:                       13.046    13.046   0.0% |
  Potential matrix:                          0.277     0.277   0.0% |
  SparseAtomicCorrection:                    0.011     0.011   0.0% |
  Sum over cells:                            0.117     0.117   0.0% |
 LCAO to grid:                             229.713   229.713   0.4% |
 Set positions (LCAO WFS):                   2.735     0.008   0.0% |
  Basic WFS set positions:                   0.003     0.003   0.0% |
  Basis functions set positions:             0.000     0.000   0.0% |
  P tci:                                     0.000     0.000   0.0% |
  ST tci:                                    0.448     0.448   0.0% |
  Scalapack redistribute:                    0.021     0.021   0.0% |
  blocked summation:                         2.085     2.085   0.0% |
  mktci:                                     0.169     0.169   0.0% |
PWDescriptor:                                0.724     0.724   0.0% |
Redistribute:                                0.087     0.087   0.0% |
SCF-cycle:                               55509.762  1551.722   2.7% ||
 Davidson:                               41656.041 10804.136  18.6% |------|
  Apply H:                                4184.142  4114.193   7.1% |--|
   HMM T:                                   69.949    69.949   0.1% |
  Subspace diag:                          7080.927     0.207   0.0% |
   calc_h_matrix:                         5219.096  1102.337   1.9% ||
    Apply H:                              4116.759  4043.687   7.0% |--|
     HMM T:                                 73.073    73.073   0.1% |
   diagonalize:                            180.652   180.652   0.3% |
   rotate_psi:                            1680.972  1680.972   2.9% ||
  calc. matrices:                        15137.119  6982.270  12.0% |----|
   Apply H:                               8154.849  8018.690  13.8% |-----|
    HMM T:                                 136.159   136.159   0.2% |
  diagonalize:                            1297.846  1297.846   2.2% ||
  rotate_psi:                             3151.870  3151.870   5.4% |-|
 Density:                                 4503.908     0.052   0.0% |
  Atomic density matrices:                  18.506    18.506   0.0% |
  Mix:                                    2235.011  2235.011   3.9% |-|
  Multipole moments:                         1.079     1.079   0.0% |
  Pseudo density:                         2249.261  2249.212   3.9% |-|
   Symmetrize density:                       0.049     0.049   0.0% |
 Hamiltonian:                             7568.868    16.146   0.0% |
  Atomic:                                  358.715    98.650   0.2% |
   XC Correction:                          260.064   260.064   0.4% |
  Calculate atomic Hamiltonians:          1953.556  1953.556   3.4% ||
  Communicate:                              94.118    94.118   0.2% |
  Poisson:                                   4.899     4.899   0.0% |
  XC 3D grid:                             5141.434   734.887   1.3% ||
   VdW-DF integral:                       4406.548   144.084   0.2% |
    Convolution:                           295.026   295.026   0.5% |
    FFT:                                   152.273   152.273   0.3% |
    gather:                               1639.181  1639.181   2.8% ||
    hmm1:                                   88.879    88.879   0.2% |
    hmm2:                                  214.436   214.436   0.4% |
    iFFT:                                  159.035   159.035   0.3% |
    potential:                            1713.623    16.490   0.0% |
     collect:                              258.766   258.766   0.4% |
     p1:                                   816.066   816.066   1.4% ||
     p2:                                   307.114   307.114   0.5% |
     sum:                                  315.188   315.188   0.5% |
    splines:                                 0.011     0.011   0.0% |
 Orthonormalize:                           229.223     0.021   0.0% |
  calc_s_matrix:                            28.854    28.854   0.0% |
  inverse-cholesky:                          6.801     6.801   0.0% |
  projections:                             145.672   145.672   0.3% |
  rotate_psi_s:                             47.874    47.874   0.1% |
Set symmetry:                                0.001     0.001   0.0% |
Other:                                     357.835   357.835   0.6% |
-------------------------------------------------------------------
Total:                                             58017.586 100.0%

Memory usage: 1.41 GiB
Date: Tue Oct 18 06:55:48 2022
