
  ___ ___ ___ _ _ _  
 |   |   |_  | | | | 
 | | | | | . | | | | 
 |__ |  _|___|_____|  22.1.0
 |___|_|             

User:   thorkong@node428.cluster
Date:   Tue Oct 18 20:43:21 2022
Arch:   x86_64
Pid:    37352
Python: 3.10.5
gpaw:   /groups/kemi/thorkong/miniconda3/envs/gpaw22/lib/python3.10/site-packages/gpaw
_gpaw:  /groups/kemi/thorkong/miniconda3/envs/gpaw22/lib/python3.10/site-packages/
        _gpaw.cpython-310-x86_64-linux-gnu.so
ase:    /groups/kemi/thorkong/miniconda3/envs/gpaw22/lib/python3.10/site-packages/ase (version 3.22.1)
numpy:  /groups/kemi/thorkong/miniconda3/envs/gpaw22/lib/python3.10/site-packages/numpy (version 1.23.0)
scipy:  /groups/kemi/thorkong/miniconda3/envs/gpaw22/lib/python3.10/site-packages/scipy (version 1.8.1)
libxc:  5.2.3
units:  Angstrom and eV
cores: 32
OpenMP: True
OMP_NUM_THREADS: 1

Input parameters:
  basis: dzp
  kpts: [4 4 1]
  mode: {ecut: 600.0,
         name: pw}
  xc: BEEF-vdW

System changes: positions, numbers, cell, pbc, initial_charges, initial_magmoms 

Initialize ...

Cu-setup:
  name: Copper
  id: f1c4d45d90492f1bbfdcb091e8418fdf
  Z: 29.0
  valence: 11
  core: 18
  charge: 0.0
  file: /groups/kemi/thorkong/miniconda3/envs/gpaw22/share/gpaw/Cu.PBE.gz
  compensation charges: gauss, rc=0.33, lmax=2
  cutoffs: 2.06(filt), 2.43(core),
  valence states:
                energy  radius
    4s(1.00)    -4.609   1.164
    4p(0.00)    -0.698   1.164
    3d(10.00)    -5.039   1.058
    *s          22.603   1.164
    *p          26.513   1.164
    *d          22.172   1.058

  LCAO basis set for Cu:
    Name: dzp
    File: /groups/kemi/thorkong/miniconda3/envs/gpaw22/share/gpaw/Cu.dzp.basis.gz
    Number of radial functions: 5
    Number of spherical harmonics: 15
      l=0, rc=8.9688 Bohr: 4s-sz confined orbital
      l=2, rc=5.1719 Bohr: 3d-sz confined orbital
      l=0, rc=5.3281 Bohr: 4s-dz split-valence wave
      l=2, rc=3.1406 Bohr: 3d-dz split-valence wave
      l=1, rc=8.9688 Bohr: p-type Gaussian polarization

Cl-setup:
  name: Chlorine
  id: 726897f06f34e53cf8e33b5885a02604
  Z: 17.0
  valence: 7
  core: 10
  charge: 0.0
  file: /groups/kemi/thorkong/miniconda3/envs/gpaw22/share/gpaw/Cl.PBE.gz
  compensation charges: gauss, rc=0.25, lmax=2
  cutoffs: 1.40(filt), 1.49(core),
  valence states:
                energy  radius
    3s(2.00)   -20.689   0.794
    3p(5.00)    -8.594   0.794
    *s           6.523   0.794
    *p          18.617   0.794
    *d           0.000   0.794

  LCAO basis set for Cl:
    Name: dzp
    File: /groups/kemi/thorkong/miniconda3/envs/gpaw22/share/gpaw/Cl.dzp.basis.gz
    Number of radial functions: 5
    Number of spherical harmonics: 13
      l=0, rc=5.1719 Bohr: 3s-sz confined orbital
      l=1, rc=6.2656 Bohr: 3p-sz confined orbital
      l=0, rc=2.8281 Bohr: 3s-dz split-valence wave
      l=1, rc=3.5156 Bohr: 3p-dz split-valence wave
      l=2, rc=6.2656 Bohr: d-type Gaussian polarization

Reference energy: -4447608.870705

Spin-paired calculation

Convergence criteria:
 Maximum [total energy] change in last 3 cyles: 0.0005 eV / electron
 Maximum integral of absolute [dens]ity change: 0.0001 electrons / valence electron
 Maximum integral of absolute [eigenst]ate change: 4e-08 eV^2 / valence electron
 Maximum number of scf [iter]ations: 333
 (Square brackets indicate name in SCF output, whereas a 'c' in
 the SCF output indicates the quantity has converged.)

Symmetries present (total): 1

  ( 1  0  0)
  ( 0  1  0)
  ( 0  0  1)

16 k-points: 4 x 4 x 1 Monkhorst-Pack grid
8 k-points in the irreducible part of the Brillouin zone
       k-points in crystal coordinates                weights
   0:     0.12500000   -0.37500000    0.00000000          2/16
   1:     0.12500000   -0.12500000    0.00000000          2/16
   2:     0.12500000    0.12500000    0.00000000          2/16
   3:     0.12500000    0.37500000    0.00000000          2/16
   4:     0.37500000   -0.37500000    0.00000000          2/16
   5:     0.37500000   -0.12500000    0.00000000          2/16
   6:     0.37500000    0.12500000    0.00000000          2/16
   7:     0.37500000    0.37500000    0.00000000          2/16

Wave functions: Plane wave expansion
  Cutoff energy: 600.000 eV
  Number of coefficients (min, max): 96699, 96750
  Pulay-stress correction: 0.000000 eV/Ang^3 (de/decut=0.000000)
  Using FFTW library
  ScaLapack parameters: grid=2x2, blocksize=64
  Wavefunction extrapolation:
    Improved wavefunction reuse through dual PAW basis 

Occupation numbers: Fermi-Dirac: width=0.1000 eV
 

Eigensolver
   Davidson(niter=2) 

Densities:
  Coarse grid: 70*42*192 grid
  Fine grid: 140*84*384 grid
  Total Charge: 0.000000 

Density mixing:
  Method: separate
  Backend: pulay
  Linear mixing parameter: 0.05
  Mixing with 5 old densities
  Damping of long wave oscillations: 50 

Hamiltonian:
  XC and Coulomb potentials evaluated on a 140*84*384 grid
  Using the BEEF-vdW Exchange-Correlation functional
  External potential:
    NoExternalPotential
 

XC parameters: BEEF-vdW with 2 nearest neighbor stencil

Memory estimate:
  Process memory now: 347.27 MiB
  Calculator: 2206.34 MiB
    Density: 70.86 MiB
      Arrays: 27.99 MiB
      Localized functions: 32.10 MiB
      Mixer: 10.77 MiB
    Hamiltonian: 19.09 MiB
      Arrays: 18.30 MiB
      XC: 0.00 MiB
      Poisson: 0.00 MiB
      vbar: 0.78 MiB
    Wavefunctions: 2116.40 MiB
      Arrays psit_nG: 1003.88 MiB
      Eigensolver: 1081.83 MiB
      Projections: 4.82 MiB
      Projectors: 3.69 MiB
      PW-descriptor: 22.18 MiB

Total number of cores used: 32
Parallelization over k-points: 8
Domain decomposition: 1 x 1 x 4
                      2 x 2 x 8 (xc only)

Number of atoms: 106
Number of atomic orbitals: 1570
Number of bands in calculation: 680
Number of valence electrons: 1126
Bands to converge: occupied

... initialized

Initializing position-dependent things.

Density initialized from atomic densities
Creating initial wave functions:
  680 bands from LCAO basis set

      .----------------------------.  
     /|                            |  
    / |                            |  
   /  |                            |  
  /   |                            |  
 *    |                            |  
 |    |                            |  
 |    |                            |  
 |    |                            |  
 |    |                            |  
 |    |                            |  
 |    |                            |  
 |    |                            |  
 |    |       Cl        Cl  Cu    Cu  
 |    |                            |  
 |    | Cu Cl    Cu    Cu      Clu |  
 |    |    Cu    Cu  Cl   Cu   Cu  |  
 |    |    Cu             Cu       |  
 |    Cu   Cu  Cu   Cu    Cu       |  
 |   Cu  Cu   Cu    Cu Cu    Cu    |  
 |    |  Cu   Cu       Cu    Cu    |  
 | Cu |  Cu   Cu Cu    Cu    Cu    |  
 | Cu | Cu  Cu   Cu    Cu Cu       |  
 |    |     Cu   Cu       Cu    Cu |  
 |    Cu    Cu   Cu Cu    Cu       |  
 |    Cu   Cu  Cu   Cu    Cu Cu    |  
 |    Cu       Cu   Cu       Cu    |  
 |    |  Cu   Cu       Cu    Cu    |  
 | Cu |  Cu   Cu  Cu   Cu    Cu    |  
 | Cu | Cu  Cu    Cu   Cu Cu       |  
 |    |  Cl Cu   Cu       Cu    Cu |  
 |    Cu    Cu       Cu   Cu       |  
 |    Cu       Cul  Cu    Cl Cu    |  
 |    |                            |  
 |    |  Cu   Cl        Cu         |  
 |    |                            |  
 |    |                            |  
 |    |                            |  
 |    |                            |  
 |    |                            |  
 |    |                            |  
 |    .----------------------------.  
 |   /                            /   
 |  /                            /    
 | /                            /     
 |/                            /      
 *----------------------------*       

Positions:
   0 Cu     3.280170    0.052453   10.025160    ( 0.0000,  0.0000,  0.0000)
   1 Cu     1.460629    1.978483   10.613378    ( 0.0000,  0.0000,  0.0000)
   2 Cu     7.285606    1.892037   10.561048    ( 0.0000,  0.0000,  0.0000)
   3 Cu     9.130630    0.060485    9.986529    ( 0.0000,  0.0000,  0.0000)
   4 Cu    11.416311    0.061294   11.242115    ( 0.0000,  0.0000,  0.0000)
   5 Cu     9.684486    1.901789   11.749874    ( 0.0000,  0.0000,  0.0000)
   6 Cu     3.813247    1.927671   11.801292    ( 0.0000,  0.0000,  0.0000)
   7 Cu     5.577901    0.088486   11.191805    ( 0.0000,  0.0000,  0.0000)
   8 Cu     7.920840    0.049661   12.311748    ( 0.0000,  0.0000,  0.0000)
   9 Cu     6.170047    1.930822   12.911945    ( 0.0000,  0.0000,  0.0000)
  10 Cu     0.300600    1.883979   12.964794    ( 0.0000,  0.0000,  0.0000)
  11 Cu     2.084785    0.060173   12.359497    ( 0.0000,  0.0000,  0.0000)
  12 Cu     4.394635    0.058308   13.522353    ( 0.0000,  0.0000,  0.0000)
  13 Cu     2.634346    1.914884   14.109020    ( 0.0000,  0.0000,  0.0000)
  14 Cu     8.463758    1.890129   14.118533    ( 0.0000,  0.0000,  0.0000)
  15 Cu    10.211235    0.040847   13.500533    ( 0.0000,  0.0000,  0.0000)
  16 Cu     0.861604    0.042207   14.689831    ( 0.0000,  0.0000,  0.0000)
  17 Cu    10.789965    1.888127   15.281325    ( 0.0000,  0.0000,  0.0000)
  18 Cu     4.974308    1.897318   15.259582    ( 0.0000,  0.0000,  0.0000)
  19 Cu     6.717794    0.052523   14.682046    ( 0.0000,  0.0000,  0.0000)
  20 Cu     9.032905    0.036195   15.858158    ( 0.0000,  0.0000,  0.0000)
  21 Cu     7.280208    1.890280   16.446764    ( 0.0000,  0.0000,  0.0000)
  22 Cu     1.441995    1.886018   16.439730    ( 0.0000,  0.0000,  0.0000)
  23 Cu     3.199983    0.040120   15.833346    ( 0.0000,  0.0000,  0.0000)
  24 Cu     5.529285    0.034972   17.013404    ( 0.0000,  0.0000,  0.0000)
  25 Cu     3.780357    1.881248   17.603245    ( 0.0000,  0.0000,  0.0000)
  26 Cu     9.610099    1.879080   17.626506    ( 0.0000,  0.0000,  0.0000)
  27 Cu    11.370532    0.031393   17.023638    ( 0.0000,  0.0000,  0.0000)
  28 Cu     2.022317    0.032196   18.179647    ( 0.0000,  0.0000,  0.0000)
  29 Cu     0.246322    1.877853   18.772204    ( 0.0000,  0.0000,  0.0000)
  30 Cu     6.094539    1.879614   18.781271    ( 0.0000,  0.0000,  0.0000)
  31 Cu     7.836415    0.031760   18.203683    ( 0.0000,  0.0000,  0.0000)
  32 Cu    10.177788    0.010483   19.350721    ( 0.0000,  0.0000,  0.0000)
  33 Cu     8.423860    1.879964   19.937985    ( 0.0000,  0.0000,  0.0000)
  34 Cu     2.605293    1.876911   19.957505    ( 0.0000,  0.0000,  0.0000)
  35 Cu     4.347096    0.031892   19.344594    ( 0.0000,  0.0000,  0.0000)
  36 Cu     6.637201    0.021755   20.542777    ( 0.0000,  0.0000,  0.0000)
  37 Cu     4.888203    1.879204   21.156377    ( 0.0000,  0.0000,  0.0000)
  38 Cu    10.724808    1.879762   21.113524    ( 0.0000,  0.0000,  0.0000)
  39 Cu     0.809058    0.041687   20.498322    ( 0.0000,  0.0000,  0.0000)
  40 Cu     3.141513    0.026123   21.724927    ( 0.0000,  0.0000,  0.0000)
  41 Cu     1.398521    1.875993   22.213312    ( 0.0000,  0.0000,  0.0000)
  42 Cu     7.213948    1.872547   22.204405    ( 0.0000,  0.0000,  0.0000)
  43 Cu     9.012279    0.030884   21.659665    ( 0.0000,  0.0000,  0.0000)
  44 Cu    11.347426   -0.009827   22.859558    ( 0.0000,  0.0000,  0.0000)
  45 Cu     9.403452    1.883286   23.498138    ( 0.0000,  0.0000,  0.0000)
  46 Cu     3.685971    1.882558   23.476573    ( 0.0000,  0.0000,  0.0000)
  47 Cu     5.542887    0.037958   22.923956    ( 0.0000,  0.0000,  0.0000)
  48 Cu     3.236775    3.765463   10.038600    ( 0.0000,  0.0000,  0.0000)
  49 Cu     1.453052    5.600205   10.620695    ( 0.0000,  0.0000,  0.0000)
  50 Cu     7.283181    5.619341   10.550236    ( 0.0000,  0.0000,  0.0000)
  51 Cu     9.143010    3.734200    9.983775    ( 0.0000,  0.0000,  0.0000)
  52 Cu    11.423917    3.763100   11.264573    ( 0.0000,  0.0000,  0.0000)
  53 Cu     9.677951    5.598669   11.740208    ( 0.0000,  0.0000,  0.0000)
  54 Cu     3.820016    5.643069   11.796707    ( 0.0000,  0.0000,  0.0000)
  55 Cu     5.598829    3.788488   11.181431    ( 0.0000,  0.0000,  0.0000)
  56 Cu     7.929178    3.749375   12.288617    ( 0.0000,  0.0000,  0.0000)
  57 Cu     6.170602    5.624960   12.908544    ( 0.0000,  0.0000,  0.0000)
  58 Cu     0.300414    5.612025   12.972015    ( 0.0000,  0.0000,  0.0000)
  59 Cu     2.061423    3.771301   12.298154    ( 0.0000,  0.0000,  0.0000)
  60 Cu     4.408818    3.763170   13.503818    ( 0.0000,  0.0000,  0.0000)
  61 Cu     2.639846    5.578813   14.114688    ( 0.0000,  0.0000,  0.0000)
  62 Cu     8.462467    5.594235   14.114922    ( 0.0000,  0.0000,  0.0000)
  63 Cu    10.203372    3.743682   13.536746    ( 0.0000,  0.0000,  0.0000)
  64 Cu     0.872189    3.739067   14.678309    ( 0.0000,  0.0000,  0.0000)
  65 Cu    10.788910    5.588430   15.282350    ( 0.0000,  0.0000,  0.0000)
  66 Cu     4.976562    5.591563   15.260426    ( 0.0000,  0.0000,  0.0000)
  67 Cu     6.734117    3.753293   14.678209    ( 0.0000,  0.0000,  0.0000)
  68 Cu     9.032107    3.734073   15.874559    ( 0.0000,  0.0000,  0.0000)
  69 Cu     7.275723    5.590857   16.449451    ( 0.0000,  0.0000,  0.0000)
  70 Cu     1.435536    5.584440   16.439756    ( 0.0000,  0.0000,  0.0000)
  71 Cu     3.221416    3.736034   15.841173    ( 0.0000,  0.0000,  0.0000)
  72 Cu     5.534597    3.734974   17.014470    ( 0.0000,  0.0000,  0.0000)
  73 Cu     3.779785    5.585944   17.586594    ( 0.0000,  0.0000,  0.0000)
  74 Cu     9.589689    5.583513   17.620910    ( 0.0000,  0.0000,  0.0000)
  75 Cu    11.375728    3.733093   17.022594    ( 0.0000,  0.0000,  0.0000)
  76 Cu     2.024539    3.733343   18.181778    ( 0.0000,  0.0000,  0.0000)
  77 Cu     0.238297    5.582680   18.783802    ( 0.0000,  0.0000,  0.0000)
  78 Cu     6.077592    5.582177   18.784333    ( 0.0000,  0.0000,  0.0000)
  79 Cu     7.834748    3.736626   18.203089    ( 0.0000,  0.0000,  0.0000)
  80 Cu    10.175388    3.749382   19.349642    ( 0.0000,  0.0000,  0.0000)
  81 Cu     8.411107    5.580509   19.955599    ( 0.0000,  0.0000,  0.0000)
  82 Cu     2.613611    5.585512   19.924222    ( 0.0000,  0.0000,  0.0000)
  83 Cu     4.353316    3.729470   19.345434    ( 0.0000,  0.0000,  0.0000)
  84 Cu     6.639625    3.735748   20.550503    ( 0.0000,  0.0000,  0.0000)
  85 Cu     4.883135    5.578252   21.181455    ( 0.0000,  0.0000,  0.0000)
  86 Cu    10.745546    5.577381   21.182145    ( 0.0000,  0.0000,  0.0000)
  87 Cu     0.808391    3.714383   20.491742    ( 0.0000,  0.0000,  0.0000)
  88 Cu     3.135868    3.731172   21.712990    ( 0.0000,  0.0000,  0.0000)
  89 Cu     1.390577    5.581632   22.193416    ( 0.0000,  0.0000,  0.0000)
  90 Cu     7.205053    5.583496   22.228799    ( 0.0000,  0.0000,  0.0000)
  91 Cu     8.998481    3.717872   21.661925    ( 0.0000,  0.0000,  0.0000)
  92 Cu    11.358068    3.765813   22.851288    ( 0.0000,  0.0000,  0.0000)
  93 Cu     9.487528    5.562221   23.470494    ( 0.0000,  0.0000,  0.0000)
  94 Cu     3.675974    5.576682   23.480532    ( 0.0000,  0.0000,  0.0000)
  95 Cu     5.545040    3.716013   22.921744    ( 0.0000,  0.0000,  0.0000)
  96 Cl     8.096342    3.794493   24.473763    ( 0.0000,  0.0000,  0.0000)
  97 Cl     4.151512    3.728430   24.919512    ( 0.0000,  0.0000,  0.0000)
  98 Cl     4.146263    0.033830   24.914523    ( 0.0000,  0.0000,  0.0000)
  99 Cl     8.012565    0.020808   24.431955    ( 0.0000,  0.0000,  0.0000)
 100 Cl    11.594568    1.903746   24.542145    ( 0.0000,  0.0000,  0.0000)
 101 Cl     4.929129    1.196513    8.921620    ( 0.0000,  0.0000,  0.0000)
 102 Cl     4.920581    4.811344    8.932244    ( 0.0000,  0.0000,  0.0000)
 103 Cl     1.129161   -0.005979    8.923329    ( 0.0000,  0.0000,  0.0000)
 104 Cl    -3.088070    1.901806    8.542983    ( 0.0000,  0.0000,  0.0000)
 105 Cl    -3.043406    5.608496    8.563587    ( 0.0000,  0.0000,  0.0000)

Unit cell:
           periodic     x           y           z      points  spacing
  1. axis:    yes   11.703590    0.000000    0.000000    70     0.1672
  2. axis:    yes    0.000000    7.402000    0.000000    42     0.1762
  3. axis:    no     0.000000    0.000000   33.459128   192     0.1743

  Lengths:  11.703590   7.402000  33.459128
  Angles:   90.000000  90.000000  90.000000

Effective grid spacing dv^(1/3) = 0.1725

     iter     time        total  log10-change:
                         energy  eigst   dens
iter:   1 21:09:51 -8064.484549
iter:   2 21:14:20 -8667.456841  +1.33  -0.85
iter:   3 21:19:04 -7801.841516  +0.72  -0.73
iter:   4 21:23:18 -7998.140799  -0.40  -1.17
iter:   5 21:27:31 -7708.812627  -1.48  -0.99
iter:   6 21:31:40 -7707.569670  -1.44  -1.35
iter:   7 21:36:19 -7693.337404  -2.28  -1.33
iter:   8 21:40:54 -7686.359770  -1.13  -1.38
iter:   9 21:44:56 -7675.069557  -1.36  -1.44
iter:  10 21:49:02 -7648.083290  -1.83  -1.49
iter:  11 21:54:05 -7643.156338  -2.10  -1.63
iter:  12 21:58:59 -7648.899429  -1.73  -1.65
iter:  13 22:03:25 -7642.852791  -2.02  -1.69
iter:  14 22:07:39 -7646.318961  -1.94  -1.80
iter:  15 22:11:42 -7643.007221  -2.79  -1.91
iter:  16 22:16:16 -7640.660093  -2.31  -1.98
iter:  17 22:20:47 -7640.462268  -2.67  -2.11
iter:  18 22:24:52 -7641.208186  -2.33  -2.25
iter:  19 22:28:55 -7639.900354  -3.24  -2.27
iter:  20 22:33:27 -7639.644717  -3.29  -2.67
iter:  21 22:37:42 -7639.579775c -3.30  -2.74
iter:  22 22:49:28 -7639.605284c -3.75  -2.90
iter:  23 22:53:23 -7639.555964c -3.91  -2.98
iter:  24 22:57:17 -7639.534271c -4.21  -3.24
iter:  25 23:01:12 -7639.532436c -4.97  -3.40
iter:  26 23:05:06 -7639.533820c -5.03  -3.44
iter:  27 23:09:14 -7639.531512c -5.83  -3.51
iter:  28 23:13:33 -7639.531467c -5.88  -3.70
iter:  29 23:17:52 -7639.531420c -6.06  -3.75
iter:  30 23:22:10 -7639.531229c -6.01  -3.79
iter:  31 23:26:25 -7639.530930c -6.25  -4.04c
iter:  32 23:30:32 -7639.530912c -7.12  -4.26c
iter:  33 23:34:48 -7639.530847c -6.60  -4.37c
iter:  34 23:39:06 -7639.530848c -7.04  -4.43c
iter:  35 23:43:24 -7639.530849c -7.64c -4.56c

Converged after 35 iterations.

Dipole moment: (29.113327, -37.442877, 0.057764) |e|*Ang

Energy contributions relative to reference atoms: (reference = -4447608.870705)

Kinetic:       +777.854100
Potential:     -848.339387
External:        +0.000000
XC:            -7567.124650
Entropy (-ST):   -0.950257
Local:           -1.445783
--------------------------
Free energy:   -7640.005977
Extrapolated:  -7639.530849

Showing only first 2 kpts
 Kpt  Band  Eigenvalues  Occupancy
  0   561      0.32091    0.75364
  0   562      0.34966    0.62409
  0   563      0.40313    0.41988
  0   564      0.44822    0.28956

  1   561     -0.07001    1.93579
  1   562      0.03040    1.83396
  1   563      0.13385    1.59396
  1   564      0.16044    1.50113


Fermi level: 0.27060

No gap

Forces in eV/Ang:
  0 Cu   -0.04496    0.02671   -0.00641
  1 Cu   -0.06178   -0.02982    0.02576
  2 Cu   -0.00076    0.03189   -0.03206
  3 Cu    0.01853    0.00732    0.05939
  4 Cu   -0.04979    0.00410   -0.06204
  5 Cu   -0.01844    0.01804    0.01007
  6 Cu   -0.03985    0.00228   -0.04252
  7 Cu   -0.09617    0.00305   -0.07738
  8 Cu   -0.05321    0.00962   -0.01585
  9 Cu    0.02036   -0.00186   -0.07060
 10 Cu   -0.01481    0.03392   -0.04515
 11 Cu   -0.04838   -0.01934    0.06618
 12 Cu    0.03690   -0.00380   -0.06765
 13 Cu   -0.03632   -0.00958    0.00937
 14 Cu    0.04372    0.00873   -0.02377
 15 Cu    0.03846    0.00379    0.02809
 16 Cu    0.02279    0.00644    0.05640
 17 Cu    0.04036    0.00151   -0.03352
 18 Cu   -0.02025   -0.01087   -0.01108
 19 Cu    0.03183   -0.00562   -0.01071
 20 Cu    0.04682    0.00794   -0.01410
 21 Cu    0.02536   -0.00646   -0.00143
 22 Cu   -0.01915    0.01368    0.03371
 23 Cu    0.00685    0.00734    0.01328
 24 Cu   -0.02128    0.01514    0.00680
 25 Cu   -0.04984    0.00450    0.00917
 26 Cu   -0.00027    0.00750   -0.02274
 27 Cu    0.01483    0.00441   -0.03903
 28 Cu   -0.04351   -0.00164    0.03068
 29 Cu   -0.02048    0.00910   -0.04357
 30 Cu   -0.03220    0.01764    0.01043
 31 Cu    0.02905    0.00758   -0.00249
 32 Cu    0.05646    0.01177    0.00998
 33 Cu   -0.00410   -0.00210    0.03365
 34 Cu   -0.04318    0.00921   -0.02569
 35 Cu   -0.03640   -0.00365    0.02073
 36 Cu   -0.03097    0.00048    0.02661
 37 Cu    0.01245   -0.00961   -0.00352
 38 Cu    0.03179   -0.00360   -0.03045
 39 Cu    0.00050   -0.02664    0.06849
 40 Cu   -0.01827   -0.01095   -0.03173
 41 Cu    0.03498    0.00302    0.06520
 42 Cu    0.05833    0.00650   -0.04028
 43 Cu   -0.01154    0.00707    0.05656
 44 Cu    0.01786   -0.00091    0.00992
 45 Cu   -0.00584   -0.00449   -0.01023
 46 Cu   -0.01258   -0.00216   -0.06349
 47 Cu   -0.03147   -0.00897   -0.01323
 48 Cu   -0.09451   -0.01842    0.01779
 49 Cu   -0.06643   -0.04503    0.01658
 50 Cu    0.05163    0.01087    0.02333
 51 Cu    0.05849    0.02931    0.04506
 52 Cu   -0.01183   -0.00451   -0.05849
 53 Cu    0.00534   -0.00546    0.01679
 54 Cu   -0.04340   -0.02049    0.01193
 55 Cu   -0.07358   -0.02037   -0.07214
 56 Cu   -0.04961    0.00711    0.08280
 57 Cu    0.01998    0.00435   -0.07519
 58 Cu   -0.01814   -0.02009   -0.06105
 59 Cu   -0.01647   -0.02856    0.00608
 60 Cu   -0.02469   -0.02067   -0.00657
 61 Cu   -0.06003    0.01960   -0.00128
 62 Cu    0.04599   -0.00003   -0.02455
 63 Cu    0.04686    0.01082   -0.04517
 64 Cu   -0.03341    0.01608    0.04682
 65 Cu    0.04297    0.01115   -0.01374
 66 Cu   -0.02129    0.01620   -0.03700
 67 Cu   -0.01620    0.01145    0.00695
 68 Cu    0.04589    0.00920   -0.03146
 69 Cu    0.02987    0.01434   -0.00353
 70 Cu   -0.00718    0.00643    0.03343
 71 Cu   -0.06734    0.01351    0.02798
 72 Cu   -0.02305    0.00235   -0.00967
 73 Cu   -0.04466    0.00623    0.03254
 74 Cu    0.07417    0.00338   -0.03403
 75 Cu    0.00889    0.01274   -0.03125
 76 Cu   -0.04394   -0.00500    0.01457
 77 Cu    0.02371   -0.00106   -0.03050
 78 Cu    0.01324   -0.00450   -0.01501
 79 Cu    0.02619   -0.01334    0.03406
 80 Cu    0.06097   -0.01488    0.00650
 81 Cu    0.04939    0.00260   -0.02619
 82 Cu   -0.05176   -0.01727    0.05242
 83 Cu   -0.06170    0.00821    0.01672
 84 Cu   -0.03487   -0.00629    0.01998
 85 Cu    0.00752    0.01472   -0.10277
 86 Cu    0.00857   -0.00080    0.01728
 87 Cu   -0.00012    0.04374    0.07835
 88 Cu   -0.01085    0.01450    0.01303
 89 Cu   -0.00814   -0.00355    0.07049
 90 Cu    0.04190   -0.01028   -0.01686
 91 Cu    0.02024    0.01041    0.02105
 92 Cu    0.01704   -0.00802    0.02510
 93 Cu    0.02103    0.03314    0.00496
 94 Cu   -0.05760    0.00167   -0.05186
 95 Cu   -0.04748    0.01381   -0.03413
 96 Cl    0.10339    0.02524    0.05312
 97 Cl    0.03455    0.01230    0.02334
 98 Cl    0.00872   -0.01960    0.05158
 99 Cl    0.09937   -0.01589    0.03949
100 Cl    0.07694   -0.01739   -0.07955
101 Cl    0.17527   -0.15596    0.12607
102 Cl    0.08536   -0.05256    0.03625
103 Cl   -0.08137   -0.00887    0.02925
104 Cl    0.03456    0.03101   -0.03227
105 Cl   -0.00146   -0.01036   -0.04104

System changes: positions 

Initializing position-dependent things.

Density initialized from wave functions
      .----------------------------.  
     /|                            |  
    / |                            |  
   /  |                            |  
  /   |                            |  
 *    |                            |  
 |    |                            |  
 |    |                            |  
 |    |                            |  
 |    |                            |  
 |    |                            |  
 |    |                            |  
 |    |                            |  
 |    |       Cl        Cl  Cu    Cu  
 |    |                            |  
 |    | Cu Cl    Cu    Cu      Clu |  
 |    |    Cu    Cu  Cl   Cu   Cu  |  
 |    |    Cu             Cu       |  
 |    Cu   Cu  Cu   Cu    Cu       |  
 |   Cu  Cu   Cu    Cu Cu    Cu    |  
 |    |  Cu   Cu       Cu    Cu    |  
 | Cu |  Cu   Cu Cu    Cu    Cu    |  
 | Cu | Cu  Cu   Cu    Cu Cu       |  
 |    |     Cu   Cu       Cu    Cu |  
 |    Cu   Cu    Cu Cu    Cu       |  
 |    Cu   Cu  Cu   Cu    Cu Cu    |  
 |    Cu       Cu   Cu       Cu    |  
 |    |  Cu   Cu       Cu    Cu    |  
 | Cu |  Cu   Cu  Cu   Cu    Cu    |  
 | Cu | Cu  Cu    Cu   Cu Cu       |  
 |    |  Cl Cu   Cu       Cu    Cu |  
 |    Cu    Cu       Cu   Cu       |  
 |    Cu       Cul  Cu    Cl Cu    |  
 |    |                            |  
 |    |  Cu   Cl        Cu         |  
 |    |                            |  
 |    |                            |  
 |    |                            |  
 |    |                            |  
 |    |                            |  
 |    |                            |  
 |    .----------------------------.  
 |   /                            /   
 |  /                            /    
 | /                            /     
 |/                            /      
 *----------------------------*       

Positions:
   0 Cu     3.275674    0.055124   10.024519    ( 0.0000,  0.0000,  0.0000)
   1 Cu     1.454451    1.975501   10.615954    ( 0.0000,  0.0000,  0.0000)
   2 Cu     7.285530    1.895226   10.557842    ( 0.0000,  0.0000,  0.0000)
   3 Cu     9.132483    0.061217    9.992468    ( 0.0000,  0.0000,  0.0000)
   4 Cu    11.411332    0.061704   11.235911    ( 0.0000,  0.0000,  0.0000)
   5 Cu     9.682642    1.903593   11.750881    ( 0.0000,  0.0000,  0.0000)
   6 Cu     3.809262    1.927899   11.797040    ( 0.0000,  0.0000,  0.0000)
   7 Cu     5.568284    0.088791   11.184067    ( 0.0000,  0.0000,  0.0000)
   8 Cu     7.915519    0.050623   12.310163    ( 0.0000,  0.0000,  0.0000)
   9 Cu     6.172083    1.930636   12.904885    ( 0.0000,  0.0000,  0.0000)
  10 Cu     0.299119    1.887371   12.960279    ( 0.0000,  0.0000,  0.0000)
  11 Cu     2.079947    0.058239   12.366115    ( 0.0000,  0.0000,  0.0000)
  12 Cu     4.398325    0.057928   13.515588    ( 0.0000,  0.0000,  0.0000)
  13 Cu     2.630714    1.913926   14.109957    ( 0.0000,  0.0000,  0.0000)
  14 Cu     8.468130    1.891002   14.116156    ( 0.0000,  0.0000,  0.0000)
  15 Cu    10.215081    0.041226   13.503342    ( 0.0000,  0.0000,  0.0000)
  16 Cu     0.863883    0.042851   14.695471    ( 0.0000,  0.0000,  0.0000)
  17 Cu    10.794001    1.888278   15.277973    ( 0.0000,  0.0000,  0.0000)
  18 Cu     4.972283    1.896231   15.258474    ( 0.0000,  0.0000,  0.0000)
  19 Cu     6.720977    0.051961   14.680975    ( 0.0000,  0.0000,  0.0000)
  20 Cu     9.037587    0.036989   15.856748    ( 0.0000,  0.0000,  0.0000)
  21 Cu     7.282744    1.889634   16.446621    ( 0.0000,  0.0000,  0.0000)
  22 Cu     1.440080    1.887386   16.443101    ( 0.0000,  0.0000,  0.0000)
  23 Cu     3.200668    0.040854   15.834674    ( 0.0000,  0.0000,  0.0000)
  24 Cu     5.527157    0.036486   17.014084    ( 0.0000,  0.0000,  0.0000)
  25 Cu     3.775373    1.881698   17.604162    ( 0.0000,  0.0000,  0.0000)
  26 Cu     9.610072    1.879830   17.624232    ( 0.0000,  0.0000,  0.0000)
  27 Cu    11.372015    0.031834   17.019735    ( 0.0000,  0.0000,  0.0000)
  28 Cu     2.017966    0.032032   18.182715    ( 0.0000,  0.0000,  0.0000)
  29 Cu     0.244274    1.878763   18.767847    ( 0.0000,  0.0000,  0.0000)
  30 Cu     6.091319    1.881378   18.782314    ( 0.0000,  0.0000,  0.0000)
  31 Cu     7.839320    0.032518   18.203434    ( 0.0000,  0.0000,  0.0000)
  32 Cu    10.183434    0.011660   19.351719    ( 0.0000,  0.0000,  0.0000)
  33 Cu     8.423450    1.879754   19.941350    ( 0.0000,  0.0000,  0.0000)
  34 Cu     2.600975    1.877832   19.954936    ( 0.0000,  0.0000,  0.0000)
  35 Cu     4.343456    0.031527   19.346667    ( 0.0000,  0.0000,  0.0000)
  36 Cu     6.634104    0.021803   20.545438    ( 0.0000,  0.0000,  0.0000)
  37 Cu     4.889448    1.878243   21.156025    ( 0.0000,  0.0000,  0.0000)
  38 Cu    10.727987    1.879402   21.110479    ( 0.0000,  0.0000,  0.0000)
  39 Cu     0.809108    0.039023   20.505171    ( 0.0000,  0.0000,  0.0000)
  40 Cu     3.139686    0.025028   21.721754    ( 0.0000,  0.0000,  0.0000)
  41 Cu     1.402019    1.876295   22.219832    ( 0.0000,  0.0000,  0.0000)
  42 Cu     7.219781    1.873197   22.200377    ( 0.0000,  0.0000,  0.0000)
  43 Cu     9.011125    0.031591   21.665321    ( 0.0000,  0.0000,  0.0000)
  44 Cu    11.349212   -0.009918   22.860550    ( 0.0000,  0.0000,  0.0000)
  45 Cu     9.402868    1.882837   23.497115    ( 0.0000,  0.0000,  0.0000)
  46 Cu     3.684713    1.882342   23.470224    ( 0.0000,  0.0000,  0.0000)
  47 Cu     5.539740    0.037061   22.922633    ( 0.0000,  0.0000,  0.0000)
  48 Cu     3.227324    3.763621   10.040379    ( 0.0000,  0.0000,  0.0000)
  49 Cu     1.446409    5.595702   10.622353    ( 0.0000,  0.0000,  0.0000)
  50 Cu     7.288344    5.620428   10.552569    ( 0.0000,  0.0000,  0.0000)
  51 Cu     9.148859    3.737131    9.988281    ( 0.0000,  0.0000,  0.0000)
  52 Cu    11.422734    3.762649   11.258724    ( 0.0000,  0.0000,  0.0000)
  53 Cu     9.678485    5.598123   11.741887    ( 0.0000,  0.0000,  0.0000)
  54 Cu     3.815676    5.641020   11.797900    ( 0.0000,  0.0000,  0.0000)
  55 Cu     5.591471    3.786451   11.174217    ( 0.0000,  0.0000,  0.0000)
  56 Cu     7.924217    3.750086   12.296897    ( 0.0000,  0.0000,  0.0000)
  57 Cu     6.172600    5.625395   12.901025    ( 0.0000,  0.0000,  0.0000)
  58 Cu     0.298600    5.610016   12.965910    ( 0.0000,  0.0000,  0.0000)
  59 Cu     2.059776    3.768445   12.298762    ( 0.0000,  0.0000,  0.0000)
  60 Cu     4.406349    3.761103   13.503161    ( 0.0000,  0.0000,  0.0000)
  61 Cu     2.633843    5.580773   14.114560    ( 0.0000,  0.0000,  0.0000)
  62 Cu     8.467066    5.594232   14.112467    ( 0.0000,  0.0000,  0.0000)
  63 Cu    10.208058    3.744764   13.532229    ( 0.0000,  0.0000,  0.0000)
  64 Cu     0.868848    3.740675   14.682991    ( 0.0000,  0.0000,  0.0000)
  65 Cu    10.793207    5.589545   15.280976    ( 0.0000,  0.0000,  0.0000)
  66 Cu     4.974433    5.593183   15.256726    ( 0.0000,  0.0000,  0.0000)
  67 Cu     6.732497    3.754438   14.678904    ( 0.0000,  0.0000,  0.0000)
  68 Cu     9.036696    3.734993   15.871413    ( 0.0000,  0.0000,  0.0000)
  69 Cu     7.278710    5.592291   16.449098    ( 0.0000,  0.0000,  0.0000)
  70 Cu     1.434818    5.585083   16.443099    ( 0.0000,  0.0000,  0.0000)
  71 Cu     3.214682    3.737385   15.843971    ( 0.0000,  0.0000,  0.0000)
  72 Cu     5.532292    3.735209   17.013503    ( 0.0000,  0.0000,  0.0000)
  73 Cu     3.775319    5.586567   17.589848    ( 0.0000,  0.0000,  0.0000)
  74 Cu     9.597106    5.583851   17.617507    ( 0.0000,  0.0000,  0.0000)
  75 Cu    11.376617    3.734367   17.019469    ( 0.0000,  0.0000,  0.0000)
  76 Cu     2.020145    3.732843   18.183235    ( 0.0000,  0.0000,  0.0000)
  77 Cu     0.240668    5.582574   18.780752    ( 0.0000,  0.0000,  0.0000)
  78 Cu     6.078916    5.581727   18.782832    ( 0.0000,  0.0000,  0.0000)
  79 Cu     7.837367    3.735292   18.206495    ( 0.0000,  0.0000,  0.0000)
  80 Cu    10.181485    3.747894   19.350292    ( 0.0000,  0.0000,  0.0000)
  81 Cu     8.416046    5.580769   19.952980    ( 0.0000,  0.0000,  0.0000)
  82 Cu     2.608435    5.583785   19.929464    ( 0.0000,  0.0000,  0.0000)
  83 Cu     4.347146    3.730291   19.347106    ( 0.0000,  0.0000,  0.0000)
  84 Cu     6.636138    3.735119   20.552501    ( 0.0000,  0.0000,  0.0000)
  85 Cu     4.883887    5.579724   21.171178    ( 0.0000,  0.0000,  0.0000)
  86 Cu    10.746403    5.577301   21.183873    ( 0.0000,  0.0000,  0.0000)
  87 Cu     0.808379    3.718757   20.499577    ( 0.0000,  0.0000,  0.0000)
  88 Cu     3.134783    3.732622   21.714293    ( 0.0000,  0.0000,  0.0000)
  89 Cu     1.389763    5.581277   22.200465    ( 0.0000,  0.0000,  0.0000)
  90 Cu     7.209243    5.582468   22.227113    ( 0.0000,  0.0000,  0.0000)
  91 Cu     9.000505    3.718913   21.664030    ( 0.0000,  0.0000,  0.0000)
  92 Cu    11.359772    3.765011   22.853798    ( 0.0000,  0.0000,  0.0000)
  93 Cu     9.489631    5.565535   23.470990    ( 0.0000,  0.0000,  0.0000)
  94 Cu     3.670214    5.576849   23.475346    ( 0.0000,  0.0000,  0.0000)
  95 Cu     5.540292    3.717394   22.918331    ( 0.0000,  0.0000,  0.0000)
  96 Cl     8.106681    3.797017   24.479075    ( 0.0000,  0.0000,  0.0000)
  97 Cl     4.154967    3.729660   24.921846    ( 0.0000,  0.0000,  0.0000)
  98 Cl     4.147135    0.031870   24.919681    ( 0.0000,  0.0000,  0.0000)
  99 Cl     8.022502    0.019219   24.435904    ( 0.0000,  0.0000,  0.0000)
 100 Cl    11.602262    1.902007   24.534190    ( 0.0000,  0.0000,  0.0000)
 101 Cl     4.946656    1.180917    8.934227    ( 0.0000,  0.0000,  0.0000)
 102 Cl     4.929117    4.806088    8.935869    ( 0.0000,  0.0000,  0.0000)
 103 Cl     1.121024   -0.006866    8.926254    ( 0.0000,  0.0000,  0.0000)
 104 Cl    -3.084614    1.904907    8.539756    ( 0.0000,  0.0000,  0.0000)
 105 Cl    -3.043552    5.607460    8.559483    ( 0.0000,  0.0000,  0.0000)

Unit cell:
           periodic     x           y           z      points  spacing
  1. axis:    yes   11.703590    0.000000    0.000000    70     0.1672
  2. axis:    yes    0.000000    7.402000    0.000000    42     0.1762
  3. axis:    no     0.000000    0.000000   33.459128   192     0.1743

  Lengths:  11.703590   7.402000  33.459128
  Angles:   90.000000  90.000000  90.000000

Effective grid spacing dv^(1/3) = 0.1725

     iter     time        total  log10-change:
                         energy  eigst   dens
iter:   1 23:51:01 -7639.881958  -2.93
iter:   2 23:55:21 -7639.602081  -3.63  -2.66
iter:   3 23:59:36 -7639.590993c -4.20  -3.04
iter:   4 00:03:40 -7639.591253c -4.61  -3.15
iter:   5 00:08:00 -7639.572128c -5.10  -3.19
iter:   6 00:12:21 -7639.569955c -4.93  -3.47
iter:   7 00:16:38 -7639.569477c -5.88  -3.75
iter:   8 00:20:53 -7639.569345c -5.45  -3.83
iter:   9 00:25:10 -7639.569393c -6.21  -4.01c
iter:  10 00:29:25 -7639.569113c -6.23  -4.18c
iter:  11 00:33:42 -7639.569075c -7.06  -4.28c
iter:  12 00:37:50 -7639.568987c -6.76  -4.31c
iter:  13 00:42:06 -7639.568979c -7.17  -4.42c
iter:  14 00:46:24 -7639.568966c -7.26  -4.54c
iter:  15 00:50:42 -7639.568966c -8.12c -4.83c

Converged after 15 iterations.

Dipole moment: (28.456124, -37.277034, 0.043472) |e|*Ang

Energy contributions relative to reference atoms: (reference = -4447608.870705)

Kinetic:       +774.719575
Potential:     -845.525716
External:        +0.000000
XC:            -7566.936728
Entropy (-ST):   -0.950204
Local:           -1.350994
--------------------------
Free energy:   -7640.044068
Extrapolated:  -7639.568966

Showing only first 2 kpts
 Kpt  Band  Eigenvalues  Occupancy
  0   561      0.31913    0.75863
  0   562      0.34807    0.62783
  0   563      0.40240    0.41992
  0   564      0.44801    0.28829

  1   561     -0.07054    1.93567
  1   562      0.02954    1.83417
  1   563      0.13393    1.59137
  1   564      0.16067    1.49756


Fermi level: 0.26988

No gap

Forces in eV/Ang:
  0 Cu   -0.08289    0.00875    0.00820
  1 Cu   -0.04554   -0.02998    0.01325
  2 Cu    0.01056    0.03053   -0.03448
  3 Cu   -0.00359    0.00724    0.01559
  4 Cu   -0.03472    0.00633   -0.03399
  5 Cu   -0.02124    0.01168    0.00853
  6 Cu   -0.03932   -0.00230   -0.01829
  7 Cu   -0.05135   -0.00460   -0.06794
  8 Cu   -0.02984    0.01478   -0.00946
  9 Cu   -0.00221    0.00183   -0.04210
 10 Cu   -0.01397    0.01200   -0.01921
 11 Cu   -0.04036   -0.01173    0.02910
 12 Cu    0.02281    0.00485   -0.04142
 13 Cu   -0.02331   -0.00408    0.01063
 14 Cu    0.02411    0.00651   -0.01112
 15 Cu    0.02730    0.00536   -0.00009
 16 Cu    0.01114    0.00533    0.02242
 17 Cu    0.02702    0.00773   -0.02758
 18 Cu   -0.00956   -0.00633   -0.01417
 19 Cu    0.02289    0.00043   -0.00903
 20 Cu    0.03018    0.00607   -0.01660
 21 Cu    0.01189    0.00292   -0.00725
 22 Cu   -0.00998    0.00560    0.02062
 23 Cu    0.00622    0.00329    0.00444
 24 Cu   -0.00849    0.00693    0.00872
 25 Cu   -0.03134    0.00394    0.01151
 26 Cu    0.00350    0.00694   -0.01224
 27 Cu    0.00653    0.00990   -0.01757
 28 Cu   -0.03144   -0.00151    0.03215
 29 Cu   -0.01118    0.00686   -0.00644
 30 Cu   -0.02342    0.00967    0.00411
 31 Cu    0.01939    0.00708    0.00597
 32 Cu    0.03417    0.00652    0.00769
 33 Cu    0.00803   -0.00505    0.00558
 34 Cu   -0.03992    0.00875    0.00161
 35 Cu   -0.02939    0.00031    0.00408
 36 Cu   -0.00919   -0.00512    0.00298
 37 Cu   -0.00312   -0.00510   -0.00809
 38 Cu    0.02742   -0.00246   -0.01234
 39 Cu   -0.00039   -0.00789    0.03922
 40 Cu   -0.01143   -0.00463   -0.02195
 41 Cu    0.02221    0.00226    0.03865
 42 Cu    0.01752    0.00974   -0.01286
 43 Cu   -0.00109    0.00175    0.02657
 44 Cu    0.00905   -0.00087    0.01021
 45 Cu   -0.00401    0.00277   -0.00596
 46 Cu    0.00579   -0.00919   -0.01861
 47 Cu   -0.02604   -0.01330   -0.00599
 48 Cu   -0.06233    0.00855   -0.01176
 49 Cu   -0.04475   -0.02483    0.00652
 50 Cu    0.04154   -0.00139    0.00792
 51 Cu    0.03170    0.02166    0.02366
 52 Cu   -0.00991   -0.00851   -0.05521
 53 Cu   -0.00199    0.00234    0.01502
 54 Cu   -0.04418   -0.01253    0.00207
 55 Cu   -0.04898   -0.00569   -0.05955
 56 Cu   -0.03866    0.00384    0.03735
 57 Cu   -0.00152   -0.00093   -0.05038
 58 Cu   -0.01538   -0.00501   -0.02661
 59 Cu   -0.02388   -0.01989    0.02044
 60 Cu   -0.01576   -0.01515   -0.00332
 61 Cu   -0.03744    0.00479    0.00702
 62 Cu    0.02899    0.00334   -0.01003
 63 Cu    0.03017    0.00835   -0.02848
 64 Cu   -0.01672    0.01028    0.01463
 65 Cu    0.03157    0.00768   -0.02566
 66 Cu   -0.01527    0.01026   -0.02318
 67 Cu   -0.01014    0.00589    0.00811
 68 Cu    0.02539    0.00689   -0.02907
 69 Cu    0.02202    0.00603   -0.00435
 70 Cu    0.00099    0.01029    0.02323
 71 Cu   -0.03619    0.01236    0.01063
 72 Cu   -0.01665    0.00542   -0.00376
 73 Cu   -0.02567    0.00568    0.02851
 74 Cu    0.04459    0.00115   -0.01650
 75 Cu   -0.00080    0.00544   -0.01790
 76 Cu   -0.03755    0.00223    0.02760
 77 Cu    0.01258    0.00143   -0.00316
 78 Cu    0.00976   -0.00256   -0.01728
 79 Cu    0.01987   -0.00490    0.01436
 80 Cu    0.04019   -0.00614    0.00265
 81 Cu    0.03751    0.00635   -0.01855
 82 Cu   -0.04269   -0.00962    0.03258
 83 Cu   -0.04129    0.00415    0.00578
 84 Cu   -0.01717    0.00445    0.00294
 85 Cu    0.00777    0.00850   -0.05510
 86 Cu    0.00587    0.00289    0.01193
 87 Cu   -0.00053    0.01533    0.04676
 88 Cu   -0.00623    0.00592    0.00473
 89 Cu   -0.01243   -0.00050    0.07023
 90 Cu    0.01647   -0.01081   -0.01494
 91 Cu    0.01888    0.00896    0.01114
 92 Cu    0.00460   -0.00237    0.02216
 93 Cu    0.02375    0.02229    0.01442
 94 Cu   -0.03216    0.00784   -0.02680
 95 Cu   -0.03572    0.01626   -0.02653
 96 Cl    0.11464    0.02202    0.03407
 97 Cl    0.02458    0.00644   -0.02959
 98 Cl    0.00267   -0.01149   -0.01593
 99 Cl    0.10252   -0.01147    0.03246
100 Cl    0.06681   -0.01761   -0.06397
101 Cl    0.15760   -0.15049    0.09912
102 Cl    0.03065   -0.09022    0.07294
103 Cl   -0.05617   -0.01021    0.03216
104 Cl    0.04192    0.02459    0.02145
105 Cl    0.00175    0.00532    0.01048

System changes: positions 

Initializing position-dependent things.

Density initialized from wave functions
      .----------------------------.  
     /|                            |  
    / |                            |  
   /  |                            |  
  /   |                            |  
 *    |                            |  
 |    |                            |  
 |    |                            |  
 |    |                            |  
 |    |                            |  
 |    |                            |  
 |    |                            |  
 |    |                            |  
 |    |       Cl        Cl  Cu    Cu  
 |    |                            |  
 |    | Cu Cl    Cu    Cu      Clu |  
 |    |    Cu    Cu  Cl   Cu   Cu  |  
 |    Cu   Cu             Cu       |  
 |    Cu   Cu  Cu   Cu    Cu       |  
 |   Cu  Cu   Cu    Cu Cu    Cu    |  
 |    |  Cu   Cu       Cu    Cu    |  
 | Cu |  Cu   Cu Cu    Cu    Cu    |  
 | Cu | Cu  Cu   Cu    Cu Cu       |  
 |    |     Cu   Cu       Cu    Cu |  
 |    Cu   Cu    Cu Cu    Cu    Cu |  
 |    Cu   Cu  Cu   Cu    Cu Cu    |  
 |    Cu       Cu   Cu       Cu    |  
 |    |  Cu   Cu       Cu    Cu    |  
 | Cu |  Cu   Cu  Cu   Cu    Cu    |  
 | Cu | Cu  Cu    Cu   Cu Cu       |  
 |    |  Cl Cu   Cu       Cu    Cu |  
 |    Cu   Cu        Cu   Cu       |  
 |    Cu       Cul  Cu    Cl Cu    |  
 |    |                            |  
 |    |  Cu   Cl        Cu         |  
 |    |                            |  
 |    |                            |  
 |    |                            |  
 |    |                            |  
 |    |                            |  
 |    |                            |  
 |    .----------------------------.  
 |   /                            /   
 |  /                            /    
 | /                            /     
 |/                            /      
 *----------------------------*       

Positions:
   0 Cu     3.265995    0.060872   10.023140    ( 0.0000,  0.0000,  0.0000)
   1 Cu     1.441151    1.969083   10.621499    ( 0.0000,  0.0000,  0.0000)
   2 Cu     7.285366    1.902089   10.550940    ( 0.0000,  0.0000,  0.0000)
   3 Cu     9.136472    0.062794   10.005253    ( 0.0000,  0.0000,  0.0000)
   4 Cu    11.400615    0.062587   11.222558    ( 0.0000,  0.0000,  0.0000)
   5 Cu     9.678674    1.907475   11.753049    ( 0.0000,  0.0000,  0.0000)
   6 Cu     3.800685    1.928391   11.787887    ( 0.0000,  0.0000,  0.0000)
   7 Cu     5.547583    0.089448   11.167409    ( 0.0000,  0.0000,  0.0000)
   8 Cu     7.904064    0.052693   12.306753    ( 0.0000,  0.0000,  0.0000)
   9 Cu     6.176466    1.930237   12.889689    ( 0.0000,  0.0000,  0.0000)
  10 Cu     0.295931    1.894672   12.950559    ( 0.0000,  0.0000,  0.0000)
  11 Cu     2.069532    0.054076   12.380359    ( 0.0000,  0.0000,  0.0000)
  12 Cu     4.406267    0.057110   13.501026    ( 0.0000,  0.0000,  0.0000)
  13 Cu     2.622895    1.911864   14.111974    ( 0.0000,  0.0000,  0.0000)
  14 Cu     8.477542    1.892880   14.111039    ( 0.0000,  0.0000,  0.0000)
  15 Cu    10.223360    0.042042   13.509389    ( 0.0000,  0.0000,  0.0000)
  16 Cu     0.868790    0.044236   14.707613    ( 0.0000,  0.0000,  0.0000)
  17 Cu    10.802687    1.888603   15.270758    ( 0.0000,  0.0000,  0.0000)
  18 Cu     4.967925    1.893890   15.256088    ( 0.0000,  0.0000,  0.0000)
  19 Cu     6.727828    0.050752   14.678669    ( 0.0000,  0.0000,  0.0000)
  20 Cu     9.047664    0.038697   15.853713    ( 0.0000,  0.0000,  0.0000)
  21 Cu     7.288204    1.888244   16.446313    ( 0.0000,  0.0000,  0.0000)
  22 Cu     1.435958    1.890331   16.450357    ( 0.0000,  0.0000,  0.0000)
  23 Cu     3.202143    0.042435   15.837534    ( 0.0000,  0.0000,  0.0000)
  24 Cu     5.522578    0.039746   17.015548    ( 0.0000,  0.0000,  0.0000)
  25 Cu     3.764644    1.882666   17.606134    ( 0.0000,  0.0000,  0.0000)
  26 Cu     9.610013    1.881446   17.619338    ( 0.0000,  0.0000,  0.0000)
  27 Cu    11.375208    0.032782   17.011333    ( 0.0000,  0.0000,  0.0000)
  28 Cu     2.008599    0.031679   18.189319    ( 0.0000,  0.0000,  0.0000)
  29 Cu     0.239866    1.880721   18.758468    ( 0.0000,  0.0000,  0.0000)
  30 Cu     6.084386    1.885175   18.784559    ( 0.0000,  0.0000,  0.0000)
  31 Cu     7.845573    0.034151   18.202897    ( 0.0000,  0.0000,  0.0000)
  32 Cu    10.195586    0.014194   19.353866    ( 0.0000,  0.0000,  0.0000)
  33 Cu     8.422569    1.879302   19.948593    ( 0.0000,  0.0000,  0.0000)
  34 Cu     2.591679    1.879814   19.949406    ( 0.0000,  0.0000,  0.0000)
  35 Cu     4.335621    0.030741   19.351129    ( 0.0000,  0.0000,  0.0000)
  36 Cu     6.627437    0.021905   20.551167    ( 0.0000,  0.0000,  0.0000)
  37 Cu     4.892127    1.876174   21.155267    ( 0.0000,  0.0000,  0.0000)
  38 Cu    10.734831    1.878628   21.103924    ( 0.0000,  0.0000,  0.0000)
  39 Cu     0.809215    0.033289   20.519915    ( 0.0000,  0.0000,  0.0000)
  40 Cu     3.135754    0.022670   21.714924    ( 0.0000,  0.0000,  0.0000)
  41 Cu     1.409547    1.876946   22.233867    ( 0.0000,  0.0000,  0.0000)
  42 Cu     7.232338    1.874596   22.191708    ( 0.0000,  0.0000,  0.0000)
  43 Cu     9.008641    0.033114   21.677495    ( 0.0000,  0.0000,  0.0000)
  44 Cu    11.353058   -0.010114   22.862686    ( 0.0000,  0.0000,  0.0000)
  45 Cu     9.401609    1.881870   23.494911    ( 0.0000,  0.0000,  0.0000)
  46 Cu     3.682005    1.881877   23.456558    ( 0.0000,  0.0000,  0.0000)
  47 Cu     5.532965    0.035132   22.919785    ( 0.0000,  0.0000,  0.0000)
  48 Cu     3.206981    3.759657   10.044208    ( 0.0000,  0.0000,  0.0000)
  49 Cu     1.432110    5.586010   10.625923    ( 0.0000,  0.0000,  0.0000)
  50 Cu     7.299457    5.622768   10.557590    ( 0.0000,  0.0000,  0.0000)
  51 Cu     9.161450    3.743440    9.997979    ( 0.0000,  0.0000,  0.0000)
  52 Cu    11.420189    3.761678   11.246133    ( 0.0000,  0.0000,  0.0000)
  53 Cu     9.679633    5.596949   11.745502    ( 0.0000,  0.0000,  0.0000)
  54 Cu     3.806333    5.636608   11.800468    ( 0.0000,  0.0000,  0.0000)
  55 Cu     5.575631    3.782065   11.158689    ( 0.0000,  0.0000,  0.0000)
  56 Cu     7.913537    3.751615   12.314721    ( 0.0000,  0.0000,  0.0000)
  57 Cu     6.176902    5.626330   12.884839    ( 0.0000,  0.0000,  0.0000)
  58 Cu     0.294694    5.605690   12.952770    ( 0.0000,  0.0000,  0.0000)
  59 Cu     2.056231    3.762299   12.300072    ( 0.0000,  0.0000,  0.0000)
  60 Cu     4.401036    3.756654   13.501748    ( 0.0000,  0.0000,  0.0000)
  61 Cu     2.620921    5.584991   14.114283    ( 0.0000,  0.0000,  0.0000)
  62 Cu     8.476967    5.594225   14.107182    ( 0.0000,  0.0000,  0.0000)
  63 Cu    10.218145    3.747093   13.522504    ( 0.0000,  0.0000,  0.0000)
  64 Cu     0.861656    3.744136   14.693070    ( 0.0000,  0.0000,  0.0000)
  65 Cu    10.802456    5.591945   15.278020    ( 0.0000,  0.0000,  0.0000)
  66 Cu     4.969850    5.596671   15.248761    ( 0.0000,  0.0000,  0.0000)
  67 Cu     6.729008    3.756901   14.680400    ( 0.0000,  0.0000,  0.0000)
  68 Cu     9.046574    3.736973   15.864642    ( 0.0000,  0.0000,  0.0000)
  69 Cu     7.285139    5.595377   16.448338    ( 0.0000,  0.0000,  0.0000)
  70 Cu     1.433271    5.586467   16.450296    ( 0.0000,  0.0000,  0.0000)
  71 Cu     3.200186    3.740292   15.849994    ( 0.0000,  0.0000,  0.0000)
  72 Cu     5.527331    3.735714   17.011420    ( 0.0000,  0.0000,  0.0000)
  73 Cu     3.765706    5.587907   17.596851    ( 0.0000,  0.0000,  0.0000)
  74 Cu     9.613072    5.584577   17.610183    ( 0.0000,  0.0000,  0.0000)
  75 Cu    11.378530    3.737110   17.012741    ( 0.0000,  0.0000,  0.0000)
  76 Cu     2.010686    3.731766   18.186370    ( 0.0000,  0.0000,  0.0000)
  77 Cu     0.245771    5.582346   18.774188    ( 0.0000,  0.0000,  0.0000)
  78 Cu     6.081766    5.580758   18.779600    ( 0.0000,  0.0000,  0.0000)
  79 Cu     7.843005    3.732420   18.213827    ( 0.0000,  0.0000,  0.0000)
  80 Cu    10.194610    3.744691   19.351691    ( 0.0000,  0.0000,  0.0000)
  81 Cu     8.426677    5.581329   19.947342    ( 0.0000,  0.0000,  0.0000)
  82 Cu     2.597293    5.580068   19.940749    ( 0.0000,  0.0000,  0.0000)
  83 Cu     4.333864    3.732058   19.350705    ( 0.0000,  0.0000,  0.0000)
  84 Cu     6.628631    3.733764   20.556801    ( 0.0000,  0.0000,  0.0000)
  85 Cu     4.885507    5.582892   21.149057    ( 0.0000,  0.0000,  0.0000)
  86 Cu    10.748247    5.577130   21.187592    ( 0.0000,  0.0000,  0.0000)
  87 Cu     0.808353    3.728172   20.516441    ( 0.0000,  0.0000,  0.0000)
  88 Cu     3.132447    3.735743   21.717098    ( 0.0000,  0.0000,  0.0000)
  89 Cu     1.388011    5.580512   22.215637    ( 0.0000,  0.0000,  0.0000)
  90 Cu     7.218262    5.580256   22.223483    ( 0.0000,  0.0000,  0.0000)
  91 Cu     9.004862    3.721155   21.668560    ( 0.0000,  0.0000,  0.0000)
  92 Cu    11.363439    3.763284   22.859200    ( 0.0000,  0.0000,  0.0000)
  93 Cu     9.494157    5.572669   23.472057    ( 0.0000,  0.0000,  0.0000)
  94 Cu     3.657815    5.577210   23.464182    ( 0.0000,  0.0000,  0.0000)
  95 Cu     5.530071    3.720368   22.910985    ( 0.0000,  0.0000,  0.0000)
  96 Cl     8.128935    3.802450   24.490511    ( 0.0000,  0.0000,  0.0000)
  97 Cl     4.162404    3.732306   24.926869    ( 0.0000,  0.0000,  0.0000)
  98 Cl     4.149011    0.027652   24.930785    ( 0.0000,  0.0000,  0.0000)
  99 Cl     8.043893    0.015800   24.444406    ( 0.0000,  0.0000,  0.0000)
 100 Cl    11.618824    1.898263   24.517066    ( 0.0000,  0.0000,  0.0000)
 101 Cl     4.984385    1.147347    8.961363    ( 0.0000,  0.0000,  0.0000)
 102 Cl     4.947492    4.794775    8.943673    ( 0.0000,  0.0000,  0.0000)
 103 Cl     1.103510   -0.008775    8.932550    ( 0.0000,  0.0000,  0.0000)
 104 Cl    -3.077175    1.911583    8.532808    ( 0.0000,  0.0000,  0.0000)
 105 Cl    -3.043866    5.605230    8.550650    ( 0.0000,  0.0000,  0.0000)

Unit cell:
           periodic     x           y           z      points  spacing
  1. axis:    yes   11.703590    0.000000    0.000000    70     0.1672
  2. axis:    yes    0.000000    7.402000    0.000000    42     0.1762
  3. axis:    no     0.000000    0.000000   33.459128   192     0.1743

  Lengths:  11.703590   7.402000  33.459128
  Angles:   90.000000  90.000000  90.000000

Effective grid spacing dv^(1/3) = 0.1725

     iter     time        total  log10-change:
                         energy  eigst   dens
iter:   1 00:57:40 -7641.063707  -2.26
iter:   2 01:02:04 -7639.806611  -2.95  -2.32
iter:   3 01:06:25 -7639.963833  -3.38  -2.67
iter:   4 01:10:45 -7639.656810c -3.82  -2.60
iter:   5 01:14:55 -7639.618698c -4.50  -2.93
iter:   6 01:18:53 -7639.608993c -4.23  -3.15
iter:   7 01:22:52 -7639.606900c -5.24  -3.42
iter:   8 01:26:51 -7639.606215c -4.82  -3.49
iter:   9 01:30:48 -7639.606632c -5.52  -3.67
iter:  10 01:34:45 -7639.605570c -5.55  -3.84
iter:  11 01:38:42 -7639.604885c -6.30  -3.88
iter:  12 01:42:40 -7639.604607c -6.05  -4.02c
iter:  13 01:46:35 -7639.604558c -6.44  -4.08c
iter:  14 01:50:30 -7639.604505c -6.59  -4.21c
iter:  15 01:54:25 -7639.604491c -7.33  -4.49c
iter:  16 01:58:23 -7639.604483c -7.36  -4.62c
iter:  17 02:02:18 -7639.604493c -7.67c -4.74c

Converged after 17 iterations.

Dipole moment: (26.926154, -36.926969, 0.014315) |e|*Ang

Energy contributions relative to reference atoms: (reference = -4447608.870705)

Kinetic:       +773.758341
Potential:     -844.755926
External:        +0.000000
XC:            -7566.780161
Entropy (-ST):   -0.950218
Local:           -1.351638
--------------------------
Free energy:   -7640.079602
Extrapolated:  -7639.604493

Showing only first 2 kpts
 Kpt  Band  Eigenvalues  Occupancy
  0   561      0.31517    0.77045
  0   562      0.34487    0.63537
  0   563      0.40111    0.41936
  0   564      0.44742    0.28615

  1   561     -0.07130    1.93524
  1   562      0.02788    1.83448
  1   563      0.13412    1.58597
  1   564      0.16131    1.48964


Fermi level: 0.26842

No gap

Forces in eV/Ang:
  0 Cu   -0.16624   -0.02462    0.02760
  1 Cu   -0.02204   -0.02940   -0.01316
  2 Cu    0.03883    0.02502   -0.04398
  3 Cu   -0.04744    0.00666   -0.07954
  4 Cu    0.00430    0.00816    0.02488
  5 Cu   -0.02763   -0.00184    0.00381
  6 Cu   -0.05044   -0.01171    0.04428
  7 Cu    0.04664   -0.02450   -0.03341
  8 Cu    0.02666    0.02340    0.00441
  9 Cu   -0.04972    0.01051    0.01932
 10 Cu   -0.00971   -0.03356    0.02866
 11 Cu   -0.02271    0.00605   -0.04615
 12 Cu   -0.00989    0.01934    0.01287
 13 Cu    0.00294    0.00660    0.01058
 14 Cu   -0.01819    0.00106    0.01459
 15 Cu    0.01034    0.00701   -0.06949
 16 Cu   -0.01051    0.00343   -0.04928
 17 Cu    0.00015    0.01904   -0.00937
 18 Cu    0.00771    0.00314   -0.01711
 19 Cu   -0.00102    0.01084   -0.00527
 20 Cu   -0.00493    0.00198   -0.01556
 21 Cu   -0.01735    0.02192   -0.01723
 22 Cu    0.01121   -0.01201   -0.00796
 23 Cu    0.00198   -0.00533   -0.01410
 24 Cu    0.01773   -0.00994    0.00614
 25 Cu    0.00584    0.00248    0.00725
 26 Cu    0.01497    0.00536    0.00974
 27 Cu   -0.01137    0.02186    0.02783
 28 Cu   -0.00651    0.00125    0.02672
 29 Cu    0.00636    0.00102    0.06593
 30 Cu   -0.00029   -0.00666   -0.01315
 31 Cu    0.00502    0.00593    0.01786
 32 Cu   -0.01231   -0.00421    0.00024
 33 Cu    0.03726   -0.01066   -0.05077
 34 Cu   -0.03874    0.00696    0.06713
 35 Cu   -0.01528    0.01003   -0.03527
 36 Cu    0.03896   -0.01530   -0.04255
 37 Cu   -0.03752    0.00431   -0.01370
 38 Cu    0.01391   -0.00023    0.02467
 39 Cu   -0.00374    0.02940   -0.01794
 40 Cu    0.00211    0.01013    0.00143
 41 Cu   -0.00995    0.00000   -0.01221
 42 Cu   -0.06860    0.01634    0.04002
 43 Cu    0.02611   -0.01065   -0.04074
 44 Cu   -0.00428    0.00137    0.01363
 45 Cu    0.00155    0.01808    0.01430
 46 Cu    0.04381   -0.02294    0.08205
 47 Cu   -0.01996   -0.02136    0.01080
 48 Cu   -0.00207    0.06028   -0.06835
 49 Cu   -0.00897    0.01904   -0.01483
 50 Cu    0.02636   -0.03055   -0.03193
 51 Cu   -0.02239    0.00753   -0.02782
 52 Cu    0.00343   -0.01666   -0.04357
 53 Cu   -0.01778    0.02038    0.00934
 54 Cu   -0.05405    0.00034   -0.00531
 55 Cu    0.00312    0.02673   -0.02760
 56 Cu   -0.00678   -0.00094   -0.05904
 57 Cu   -0.04895   -0.00995    0.00810
 58 Cu   -0.00742    0.02465    0.03898
 59 Cu   -0.04082   -0.00188    0.04602
 60 Cu    0.00145   -0.00249    0.00386
 61 Cu    0.01039   -0.02524    0.02214
 62 Cu   -0.01018    0.01128    0.01488
 63 Cu   -0.00349    0.00462   -0.00212
 64 Cu    0.02312   -0.00236   -0.05425
 65 Cu    0.00810    0.00269   -0.04625
 66 Cu   -0.00705   -0.00198    0.00627
 67 Cu   -0.00327   -0.00316    0.01107
 68 Cu   -0.01734    0.00199   -0.01912
 69 Cu    0.00568   -0.01031   -0.00371
 70 Cu    0.01864    0.01869   -0.00034
 71 Cu    0.02896    0.00929   -0.02544
 72 Cu   -0.00489    0.01122    0.00178
 73 Cu    0.01234    0.00486    0.01214
 74 Cu   -0.01680   -0.00244    0.01953
 75 Cu   -0.02042   -0.01036    0.01194
 76 Cu   -0.02411    0.01675    0.04655
 77 Cu   -0.01486    0.00665    0.05115
 78 Cu    0.00764    0.00130   -0.02655
 79 Cu    0.01153    0.01262   -0.03057
 80 Cu   -0.00452    0.01242   -0.00718
 81 Cu    0.01382    0.01399   -0.00115
 82 Cu   -0.02637    0.00759   -0.00386
 83 Cu    0.00179   -0.00516   -0.02061
 84 Cu    0.02211    0.02604   -0.02986
 85 Cu    0.00628   -0.00571    0.04905
 86 Cu   -0.00008    0.01164    0.00611
 87 Cu   -0.00327   -0.04333   -0.01518
 88 Cu    0.00110   -0.01341   -0.01103
 89 Cu   -0.02860    0.00672    0.06777
 90 Cu   -0.03381   -0.01108   -0.01701
 91 Cu    0.02080    0.00580   -0.01528
 92 Cu   -0.01621    0.00819    0.01931
 93 Cu    0.02479   -0.00033    0.03928
 94 Cu    0.01997    0.02104    0.03515
 95 Cu   -0.01687    0.02050   -0.00783
 96 Cl    0.12652    0.01059    0.01827
 97 Cl    0.02085   -0.00549   -0.10020
 98 Cl    0.00565    0.00349   -0.11427
 99 Cl    0.10505   -0.00282    0.03531
100 Cl    0.06921   -0.01724   -0.02491
101 Cl    0.15258   -0.13435    0.01557
102 Cl   -0.04210   -0.14839    0.10125
103 Cl   -0.02369   -0.00717    0.02265
104 Cl    0.04468    0.01011    0.09066
105 Cl    0.00646    0.02898    0.08126

System changes: positions 

Initializing position-dependent things.

Density initialized from wave functions
      .----------------------------.  
     /|                            |  
    / |                            |  
   /  |                            |  
  /   |                            |  
 *    |                            |  
 |    |                            |  
 |    |                            |  
 |    |                            |  
 |    |                            |  
 |    |                            |  
 |    |                            |  
 |    |                            |  
 |    |       Cl        Cl  Cu    Cu  
 |    |                            |  
 |    | Cu Cl    Cu    Cu      Clu |  
 |    |    Cu    Cu  Cl   Cu   Cu  |  
 |    Cu   Cu             Cu       |  
 |    Cu   Cu  Cu   Cu    Cu       |  
 |   Cu  Cu   Cu    Cu Cu    Cu    |  
 |    |  Cu   Cu       Cu    Cu    |  
 | Cu | Cu    Cu Cu    Cu    Cu    |  
 | Cu | Cu  Cu   Cu    Cu Cu       |  
 |    |     Cu   Cu       Cu    Cu |  
 |    Cu   Cu    Cu Cu    Cu    Cu |  
 |    Cu   Cu  Cu   Cu    Cu Cu    |  
 |    Cu       Cu   Cu       Cu    |  
 |    |  Cu   Cu       Cu    Cu    |  
 | Cu |  Cu   Cu  Cu   Cu    Cu    |  
 | Cu | Cu  Cu    Cu   Cu Cu       |  
 |    |  Cl Cu   Cu       Cu    Cu |  
 |    Cu   Cu        Cu   Cu       |  
 |    Cu       Cul  Cu    Cl Cu    |  
 |    |                            |  
 |    |  Cu   Cl        Cu         |  
 |    |                            |  
 |    |                            |  
 |    |                            |  
 |    |                            |  
 |    |                            |  
 |    |                            |  
 |    .----------------------------.  
 |   /                            /   
 |  /                            /    
 | /                            /     
 |/                            /      
 *----------------------------*       

Positions:
   0 Cu     3.244458    0.060806   10.025417    ( 0.0000,  0.0000,  0.0000)
   1 Cu     1.433070    1.963228   10.622538    ( 0.0000,  0.0000,  0.0000)
   2 Cu     7.289342    1.907682   10.543355    ( 0.0000,  0.0000,  0.0000)
   3 Cu     9.133262    0.064174   10.002523    ( 0.0000,  0.0000,  0.0000)
   4 Cu    11.396402    0.063822   11.219343    ( 0.0000,  0.0000,  0.0000)
   5 Cu     9.674068    1.908972   11.754389    ( 0.0000,  0.0000,  0.0000)
   6 Cu     3.791697    1.927385   11.788521    ( 0.0000,  0.0000,  0.0000)
   7 Cu     5.543441    0.087181   11.156682    ( 0.0000,  0.0000,  0.0000)
   8 Cu     7.901862    0.056031   12.305729    ( 0.0000,  0.0000,  0.0000)
   9 Cu     6.173191    1.931159   12.885094    ( 0.0000,  0.0000,  0.0000)
  10 Cu     0.293533    1.894350   12.949320    ( 0.0000,  0.0000,  0.0000)
  11 Cu     2.062636    0.052896   12.381744    ( 0.0000,  0.0000,  0.0000)
  12 Cu     4.408691    0.058770   13.496036    ( 0.0000,  0.0000,  0.0000)
  13 Cu     2.619801    1.911655   14.113954    ( 0.0000,  0.0000,  0.0000)
  14 Cu     8.479738    1.893806   14.110334    ( 0.0000,  0.0000,  0.0000)
  15 Cu    10.228039    0.043128   13.504776    ( 0.0000,  0.0000,  0.0000)
  16 Cu     0.869828    0.045196   14.707756    ( 0.0000,  0.0000,  0.0000)
  17 Cu    10.806481    1.890729   15.266644    ( 0.0000,  0.0000,  0.0000)
  18 Cu     4.966833    1.893198   15.253267    ( 0.0000,  0.0000,  0.0000)
  19 Cu     6.730702    0.051356   14.677116    ( 0.0000,  0.0000,  0.0000)
  20 Cu     9.051532    0.039646   15.850771    ( 0.0000,  0.0000,  0.0000)
  21 Cu     7.288770    1.889924   16.444383    ( 0.0000,  0.0000,  0.0000)
  22 Cu     1.435334    1.890360   16.452683    ( 0.0000,  0.0000,  0.0000)
  23 Cu     3.202990    0.042567   15.837308    ( 0.0000,  0.0000,  0.0000)
  24 Cu     5.522434    0.040127   17.016824    ( 0.0000,  0.0000,  0.0000)
  25 Cu     3.760588    1.883346   17.607748    ( 0.0000,  0.0000,  0.0000)
  26 Cu     9.611547    1.882707   17.618225    ( 0.0000,  0.0000,  0.0000)
  27 Cu    11.375411    0.035473   17.010579    ( 0.0000,  0.0000,  0.0000)
  28 Cu     2.003848    0.031656   18.194976    ( 0.0000,  0.0000,  0.0000)
  29 Cu     0.238612    1.881680   18.761261    ( 0.0000,  0.0000,  0.0000)
  30 Cu     6.081342    1.886132   18.784164    ( 0.0000,  0.0000,  0.0000)
  31 Cu     7.848816    0.035480   18.204525    ( 0.0000,  0.0000,  0.0000)
  32 Cu    10.199588    0.014857   19.354825    ( 0.0000,  0.0000,  0.0000)
  33 Cu     8.426070    1.877995   19.946451    ( 0.0000,  0.0000,  0.0000)
  34 Cu     2.583598    1.881401   19.953999    ( 0.0000,  0.0000,  0.0000)
  35 Cu     4.330621    0.031445   19.349393    ( 0.0000,  0.0000,  0.0000)
  36 Cu     6.628599    0.020355   20.549224    ( 0.0000,  0.0000,  0.0000)
  37 Cu     4.889382    1.875723   21.153510    ( 0.0000,  0.0000,  0.0000)
  38 Cu    10.739257    1.878267   21.103644    ( 0.0000,  0.0000,  0.0000)
  39 Cu     0.808871    0.033861   20.524457    ( 0.0000,  0.0000,  0.0000)
  40 Cu     3.134264    0.022701   21.712103    ( 0.0000,  0.0000,  0.0000)
  41 Cu     1.411784    1.877228   22.238698    ( 0.0000,  0.0000,  0.0000)
  42 Cu     7.230649    1.876908   22.192109    ( 0.0000,  0.0000,  0.0000)
  43 Cu     9.010282    0.032666   21.678542    ( 0.0000,  0.0000,  0.0000)
  44 Cu    11.354284   -0.010056   22.865036    ( 0.0000,  0.0000,  0.0000)
  45 Cu     9.401224    1.883334   23.495444    ( 0.0000,  0.0000,  0.0000)
  46 Cu     3.685393    1.879284   23.459167    ( 0.0000,  0.0000,  0.0000)
  47 Cu     5.527939    0.032065   22.919672    ( 0.0000,  0.0000,  0.0000)
  48 Cu     3.197918    3.764216   10.038749    ( 0.0000,  0.0000,  0.0000)
  49 Cu     1.424957    5.583780   10.625930    ( 0.0000,  0.0000,  0.0000)
  50 Cu     7.307038    5.620601   10.556446    ( 0.0000,  0.0000,  0.0000)
  51 Cu     9.164591    3.746968    9.999298    ( 0.0000,  0.0000,  0.0000)
  52 Cu    11.419440    3.759519   11.236116    ( 0.0000,  0.0000,  0.0000)
  53 Cu     9.678279    5.598562   11.748047    ( 0.0000,  0.0000,  0.0000)
  54 Cu     3.796636    5.634726   11.801032    ( 0.0000,  0.0000,  0.0000)
  55 Cu     5.569068    3.782943   11.149059    ( 0.0000,  0.0000,  0.0000)
  56 Cu     7.908186    3.752183   12.316320    ( 0.0000,  0.0000,  0.0000)
  57 Cu     6.173671    5.625701   12.878645    ( 0.0000,  0.0000,  0.0000)
  58 Cu     0.292223    5.606379   12.951118    ( 0.0000,  0.0000,  0.0000)
  59 Cu     2.050435    3.759430   12.305438    ( 0.0000,  0.0000,  0.0000)
  60 Cu     4.398877    3.754459   13.501535    ( 0.0000,  0.0000,  0.0000)
  61 Cu     2.616384    5.584195   14.116471    ( 0.0000,  0.0000,  0.0000)
  62 Cu     8.480212    5.595399   14.106434    ( 0.0000,  0.0000,  0.0000)
  63 Cu    10.222168    3.748587   13.518054    ( 0.0000,  0.0000,  0.0000)
  64 Cu     0.860938    3.745395   14.691799    ( 0.0000,  0.0000,  0.0000)
  65 Cu    10.807323    5.593269   15.271913    ( 0.0000,  0.0000,  0.0000)
  66 Cu     4.967122    5.597982   15.245951    ( 0.0000,  0.0000,  0.0000)
  67 Cu     6.727151    3.757643   14.682205    ( 0.0000,  0.0000,  0.0000)
  68 Cu     9.049062    3.738042   15.859705    ( 0.0000,  0.0000,  0.0000)
  69 Cu     7.288527    5.595645   16.447621    ( 0.0000,  0.0000,  0.0000)
  70 Cu     1.434542    5.589018   16.453391    ( 0.0000,  0.0000,  0.0000)
  71 Cu     3.196900    3.742525   15.849961    ( 0.0000,  0.0000,  0.0000)
  72 Cu     5.524664    3.737104   17.010700    ( 0.0000,  0.0000,  0.0000)
  73 Cu     3.762813    5.588997   17.601162    ( 0.0000,  0.0000,  0.0000)
  74 Cu     9.618265    5.584639   17.609033    ( 0.0000,  0.0000,  0.0000)
  75 Cu    11.377234    3.737222   17.011060    ( 0.0000,  0.0000,  0.0000)
  76 Cu     2.004060    3.733043   18.192586    ( 0.0000,  0.0000,  0.0000)
  77 Cu     0.246441    5.582941   18.776664    ( 0.0000,  0.0000,  0.0000)
  78 Cu     6.083802    5.580473   18.775427    ( 0.0000,  0.0000,  0.0000)
  79 Cu     7.846658    3.732487   18.213829    ( 0.0000,  0.0000,  0.0000)
  80 Cu    10.199847    3.744593   19.351552    ( 0.0000,  0.0000,  0.0000)
  81 Cu     8.432740    5.583030   19.944771    ( 0.0000,  0.0000,  0.0000)
  82 Cu     2.589699    5.579242   19.945254    ( 0.0000,  0.0000,  0.0000)
  83 Cu     4.328275    3.732288   19.350122    ( 0.0000,  0.0000,  0.0000)
  84 Cu     6.627670    3.735889   20.555558    ( 0.0000,  0.0000,  0.0000)
  85 Cu     4.886867    5.583674   21.144549    ( 0.0000,  0.0000,  0.0000)
  86 Cu    10.749040    5.578268   21.189846    ( 0.0000,  0.0000,  0.0000)
  87 Cu     0.808001    3.727750   20.522193    ( 0.0000,  0.0000,  0.0000)
  88 Cu     3.131545    3.735702   21.717168    ( 0.0000,  0.0000,  0.0000)
  89 Cu     1.384269    5.580880   22.229299    ( 0.0000,  0.0000,  0.0000)
  90 Cu     7.218660    5.578140   22.220131    ( 0.0000,  0.0000,  0.0000)
  91 Cu     9.008925    3.722734   21.668937    ( 0.0000,  0.0000,  0.0000)
  92 Cu    11.363344    3.763386   22.863562    ( 0.0000,  0.0000,  0.0000)
  93 Cu     9.498709    5.575737   23.476615    ( 0.0000,  0.0000,  0.0000)
  94 Cu     3.654505    5.579560   23.462990    ( 0.0000,  0.0000,  0.0000)
  95 Cu     5.523868    3.723798   22.906974    ( 0.0000,  0.0000,  0.0000)
  96 Cl     8.151801    3.805917   24.497389    ( 0.0000,  0.0000,  0.0000)
  97 Cl     4.167811    3.732885   24.918610    ( 0.0000,  0.0000,  0.0000)
  98 Cl     4.150416    0.026181   24.923704    ( 0.0000,  0.0000,  0.0000)
  99 Cl     8.064144    0.014018   24.451783    ( 0.0000,  0.0000,  0.0000)
 100 Cl    11.633240    1.894837   24.507022    ( 0.0000,  0.0000,  0.0000)
 101 Cl     5.016696    1.118744    8.974787    ( 0.0000,  0.0000,  0.0000)
 102 Cl     4.951095    4.774388    8.957620    ( 0.0000,  0.0000,  0.0000)
 103 Cl     1.093423   -0.010353    8.937649    ( 0.0000,  0.0000,  0.0000)
 104 Cl    -3.069283    1.915541    8.539236    ( 0.0000,  0.0000,  0.0000)
 105 Cl    -3.043329    5.607281    8.555278    ( 0.0000,  0.0000,  0.0000)

Unit cell:
           periodic     x           y           z      points  spacing
  1. axis:    yes   11.703590    0.000000    0.000000    70     0.1672
  2. axis:    yes    0.000000    7.402000    0.000000    42     0.1762
  3. axis:    no     0.000000    0.000000   33.459128   192     0.1743

  Lengths:  11.703590   7.402000  33.459128
  Angles:   90.000000  90.000000  90.000000

Effective grid spacing dv^(1/3) = 0.1725

     iter     time        total  log10-change:
                         energy  eigst   dens
iter:   1 02:08:43 -7640.136500  -2.84
iter:   2 02:12:39 -7639.760821  -3.28  -2.54
iter:   3 02:16:35 -7639.825446c -3.76  -2.85
iter:   4 02:20:31 -7639.645336c -4.29  -2.76
iter:   5 02:24:26 -7639.639039c -5.00  -3.24
iter:   6 02:28:21 -7639.636010c -4.76  -3.44
iter:   7 02:32:13 -7639.635683c -5.57  -3.68
iter:   8 02:36:07 -7639.635456c -5.51  -3.76
iter:   9 02:40:01 -7639.635196c -6.05  -3.98
iter:  10 02:43:55 -7639.635196c -6.25  -4.14c
iter:  11 02:47:47 -7639.635176c -6.85  -4.19c
iter:  12 02:51:42 -7639.635096c -6.88  -4.19c
iter:  13 02:55:36 -7639.635026c -6.75  -4.32c
iter:  14 02:59:31 -7639.635006c -7.50c -4.60c

Converged after 14 iterations.

Dipole moment: (25.387907, -36.964295, -0.010129) |e|*Ang

Energy contributions relative to reference atoms: (reference = -4447608.870705)

Kinetic:       +774.824752
Potential:     -845.634396
External:        +0.000000
XC:            -7567.014699
Entropy (-ST):   -0.950054
Local:           -1.335636
--------------------------
Free energy:   -7640.110033
Extrapolated:  -7639.635006

Showing only first 2 kpts
 Kpt  Band  Eigenvalues  Occupancy
  0   561      0.32893    0.77651
  0   562      0.35870    0.64060
  0   563      0.41815    0.41277
  0   564      0.46324    0.28423

  1   561     -0.05730    1.93588
  1   562      0.04288    1.83453
  1   563      0.14894    1.58669
  1   564      0.17726    1.48613


Fermi level: 0.28346

No gap

Forces in eV/Ang:
  0 Cu   -0.06796    0.01069    0.01552
  1 Cu    0.00320    0.01194   -0.00648
  2 Cu    0.00928    0.01651    0.00510
  3 Cu   -0.03541    0.00583   -0.04427
  4 Cu   -0.00329    0.00460    0.03495
  5 Cu   -0.01873   -0.00195   -0.00239
  6 Cu   -0.03950   -0.00163    0.03659
  7 Cu    0.04890   -0.02678   -0.00460
  8 Cu    0.02475    0.01408    0.00174
  9 Cu   -0.04210    0.01307    0.01600
 10 Cu   -0.01013   -0.02925    0.02989
 11 Cu   -0.00607    0.00735   -0.03766
 12 Cu   -0.02519    0.00676    0.01712
 13 Cu    0.00911    0.00064    0.01055
 14 Cu   -0.02982    0.00304    0.01099
 15 Cu   -0.01495    0.01152   -0.05444
 16 Cu   -0.01321    0.00259   -0.04577
 17 Cu   -0.01588    0.01210    0.00331
 18 Cu    0.00923    0.00481    0.00288
 19 Cu   -0.01511    0.00612   -0.00272
 20 Cu   -0.01170    0.00249   -0.00896
 21 Cu   -0.01882    0.01598   -0.00688
 22 Cu    0.01353   -0.00621   -0.00639
 23 Cu   -0.00131   -0.00441   -0.00860
 24 Cu    0.02334   -0.00962   -0.00399
 25 Cu    0.00931    0.00449    0.00408
 26 Cu    0.01250    0.00299    0.00239
 27 Cu   -0.01224    0.01210    0.02798
 28 Cu    0.00768    0.00935    0.00890
 29 Cu    0.00862   -0.00206    0.05753
 30 Cu    0.01534   -0.00495   -0.01337
 31 Cu   -0.00278    0.00396   -0.00430
 32 Cu   -0.02010   -0.00472   -0.00319
 33 Cu    0.02467    0.00353   -0.02946
 34 Cu   -0.00832    0.00139    0.05539
 35 Cu    0.00139    0.00706   -0.02501
 36 Cu    0.03273   -0.00013   -0.03349
 37 Cu   -0.02954    0.00197   -0.01194
 38 Cu   -0.00919    0.00304    0.03551
 39 Cu   -0.00663    0.01953   -0.01887
 40 Cu    0.00272    0.00524    0.00957
 41 Cu   -0.01195   -0.00082   -0.00779
 42 Cu   -0.07294    0.00896    0.02529
 43 Cu    0.01621    0.00025   -0.04297
 44 Cu   -0.01226    0.00393    0.00940
 45 Cu   -0.00310    0.01601    0.00971
 46 Cu    0.03438   -0.01244    0.04488
 47 Cu    0.01588   -0.01769   -0.02958
 48 Cu   -0.05745    0.01898   -0.00337
 49 Cu   -0.00432    0.00707    0.00062
 50 Cu    0.00487   -0.02771    0.00442
 51 Cu   -0.02583    0.00551   -0.00805
 52 Cu    0.00112   -0.00984   -0.00539
 53 Cu   -0.01481    0.01563   -0.00022
 54 Cu   -0.04069    0.01065    0.00610
 55 Cu    0.02226    0.01410    0.02154
 56 Cu    0.00329   -0.00334   -0.06584
 57 Cu   -0.04298   -0.00036    0.02195
 58 Cu    0.00068    0.01758    0.03127
 59 Cu   -0.03004    0.00482    0.00214
 60 Cu    0.00688    0.00867   -0.00511
 61 Cu    0.02676   -0.01389    0.01156
 62 Cu   -0.03119    0.00828    0.00859
 63 Cu   -0.02310   -0.00105   -0.00310
 64 Cu    0.02508   -0.00848   -0.04112
 65 Cu   -0.00782    0.00430   -0.01717
 66 Cu    0.00644   -0.00147    0.02110
 67 Cu    0.00108    0.00106   -0.00160
 68 Cu   -0.02136    0.00193   -0.00781
 69 Cu   -0.00407   -0.00494   -0.00502
 70 Cu    0.00537    0.00980   -0.00299
 71 Cu    0.03897   -0.00044   -0.00854
 72 Cu    0.00171    0.00658    0.00407
 73 Cu    0.01808    0.00143    0.00072
 74 Cu   -0.03021    0.00154    0.01044
 75 Cu   -0.00933   -0.00401    0.01089
 76 Cu   -0.00438    0.01106    0.01988
 77 Cu   -0.02646    0.00734    0.04851
 78 Cu    0.00166    0.00249   -0.01362
 79 Cu    0.00062    0.01287   -0.03855
 80 Cu   -0.02233    0.01564   -0.00129
 81 Cu   -0.00309    0.00318    0.00601
 82 Cu   -0.00166    0.01252    0.00423
 83 Cu    0.01911   -0.00238   -0.01745
 84 Cu    0.03263    0.00992   -0.03763
 85 Cu   -0.01253   -0.00309    0.05299
 86 Cu    0.00625    0.00693    0.00593
 87 Cu   -0.01079   -0.02966   -0.01276
 88 Cu   -0.00237   -0.00567   -0.00667
 89 Cu   -0.01760    0.00448    0.02850
 90 Cu   -0.02611   -0.00203   -0.00716
 91 Cu    0.00533   -0.00404   -0.02375
 92 Cu   -0.02170    0.01198    0.00732
 93 Cu    0.01558   -0.00270    0.02892
 94 Cu    0.02087    0.01062    0.00954
 95 Cu    0.00651    0.01507   -0.02808
 96 Cl    0.11114    0.00272    0.02997
 97 Cl    0.01726    0.00028   -0.04290
 98 Cl    0.00619   -0.00100   -0.03826
 99 Cl    0.09209    0.00346    0.03917
100 Cl    0.06891   -0.01477    0.00742
101 Cl    0.05548   -0.16459    0.00087
102 Cl   -0.00230   -0.11466   -0.00874
103 Cl   -0.04872   -0.00706   -0.04650
104 Cl    0.04554    0.01576    0.01249
105 Cl   -0.00067    0.02095    0.01384

System changes: positions 

Initializing position-dependent things.

Density initialized from wave functions
      .----------------------------.  
     /|                            |  
    / |                            |  
   /  |                            |  
  /   |                            |  
 *    |                            |  
 |    |                            |  
 |    |                            |  
 |    |                            |  
 |    |                            |  
 |    |                            |  
 |    |                            |  
 |    |                            |  
 |    |       Cl        Cl  Cu    Cu  
 |    |                            |  
 |    | Cu Cl    Cu    Cu      Clu |  
 |    |    Cu    Cu  Cl   Cu   Cu  |  
 |    Cu   Cu             Cu       |  
 |    Cu   Cu  Cu   Cu    Cu       |  
 |   Cu  Cu   Cu    Cu Cu    Cu    |  
 |    |  Cu   Cu       Cu    Cu    |  
 | Cu | Cu    Cu Cu    Cu    Cu    |  
 | Cu | Cu  Cu   Cu    Cu Cu       |  
 |    |     Cu   Cu       Cu    Cu |  
 |    Cu   Cu    Cu Cu    Cu    Cu |  
 |    Cu   Cu  Cu   Cu    Cu Cu    |  
 |    Cu       Cu   Cu       Cu    |  
 |    |  Cu   Cu       Cu    Cu    |  
 | Cu |  Cu   Cu  Cu   Cu    Cu    |  
 | Cu | Cu  Cu    Cu   Cu Cu       |  
 |    |  Cl Cu   Cu       Cu    Cu |  
 |    Cu   Cu        Cu   Cu       |  
 |    Cu       Cul  Cu    Cl Cu    |  
 |    |                            |  
 |    |  Cu   Cl        Cu         |  
 |    |                            |  
 |    |                            |  
 |    |                            |  
 |    |                            |  
 |    |                            |  
 |    |                            |  
 |    .----------------------------.  
 |   /                            /   
 |  /                            /    
 | /                            /     
 |/                            /      
 *----------------------------*       

Positions:
   0 Cu     3.221052    0.060735   10.027891    ( 0.0000,  0.0000,  0.0000)
   1 Cu     1.424288    1.956864   10.623668    ( 0.0000,  0.0000,  0.0000)
   2 Cu     7.293664    1.913760   10.535111    ( 0.0000,  0.0000,  0.0000)
   3 Cu     9.129774    0.065673    9.999555    ( 0.0000,  0.0000,  0.0000)
   4 Cu    11.391824    0.065164   11.215850    ( 0.0000,  0.0000,  0.0000)
   5 Cu     9.669063    1.910598   11.755845    ( 0.0000,  0.0000,  0.0000)
   6 Cu     3.781931    1.926291   11.789211    ( 0.0000,  0.0000,  0.0000)
   7 Cu     5.538941    0.084716   11.145025    ( 0.0000,  0.0000,  0.0000)
   8 Cu     7.899469    0.059660   12.304616    ( 0.0000,  0.0000,  0.0000)
   9 Cu     6.169631    1.932160   12.880101    ( 0.0000,  0.0000,  0.0000)
  10 Cu     0.290926    1.893999   12.947972    ( 0.0000,  0.0000,  0.0000)
  11 Cu     2.055142    0.051613   12.383248    ( 0.0000,  0.0000,  0.0000)
  12 Cu     4.411325    0.060574   13.490612    ( 0.0000,  0.0000,  0.0000)
  13 Cu     2.616439    1.911428   14.116105    ( 0.0000,  0.0000,  0.0000)
  14 Cu     8.482125    1.894814   14.109568    ( 0.0000,  0.0000,  0.0000)
  15 Cu    10.233123    0.044308   13.499763    ( 0.0000,  0.0000,  0.0000)
  16 Cu     0.870956    0.046240   14.707911    ( 0.0000,  0.0000,  0.0000)
  17 Cu    10.810604    1.893040   15.262173    ( 0.0000,  0.0000,  0.0000)
  18 Cu     4.965647    1.892447   15.250202    ( 0.0000,  0.0000,  0.0000)
  19 Cu     6.733825    0.052012   14.675429    ( 0.0000,  0.0000,  0.0000)
  20 Cu     9.055736    0.040678   15.847574    ( 0.0000,  0.0000,  0.0000)
  21 Cu     7.289386    1.891749   16.442286    ( 0.0000,  0.0000,  0.0000)
  22 Cu     1.434656    1.890392   16.455211    ( 0.0000,  0.0000,  0.0000)
  23 Cu     3.203911    0.042710   15.837062    ( 0.0000,  0.0000,  0.0000)
  24 Cu     5.522278    0.040542   17.018212    ( 0.0000,  0.0000,  0.0000)
  25 Cu     3.756179    1.884085   17.609502    ( 0.0000,  0.0000,  0.0000)
  26 Cu     9.613215    1.884077   17.617015    ( 0.0000,  0.0000,  0.0000)
  27 Cu    11.375632    0.038397   17.009760    ( 0.0000,  0.0000,  0.0000)
  28 Cu     1.998684    0.031631   18.201123    ( 0.0000,  0.0000,  0.0000)
  29 Cu     0.237250    1.882721   18.764296    ( 0.0000,  0.0000,  0.0000)
  30 Cu     6.078033    1.887172   18.783736    ( 0.0000,  0.0000,  0.0000)
  31 Cu     7.852340    0.036923   18.206294    ( 0.0000,  0.0000,  0.0000)
  32 Cu    10.203938    0.015577   19.355867    ( 0.0000,  0.0000,  0.0000)
  33 Cu     8.429874    1.876574   19.944123    ( 0.0000,  0.0000,  0.0000)
  34 Cu     2.574817    1.883126   19.958989    ( 0.0000,  0.0000,  0.0000)
  35 Cu     4.325187    0.032211   19.347506    ( 0.0000,  0.0000,  0.0000)
  36 Cu     6.629861    0.018671   20.547112    ( 0.0000,  0.0000,  0.0000)
  37 Cu     4.886398    1.875233   21.151600    ( 0.0000,  0.0000,  0.0000)
  38 Cu    10.744067    1.877876   21.103340    ( 0.0000,  0.0000,  0.0000)
  39 Cu     0.808498    0.034481   20.529393    ( 0.0000,  0.0000,  0.0000)
  40 Cu     3.132645    0.022734   21.709037    ( 0.0000,  0.0000,  0.0000)
  41 Cu     1.414216    1.877536   22.243948    ( 0.0000,  0.0000,  0.0000)
  42 Cu     7.228813    1.879421   22.192545    ( 0.0000,  0.0000,  0.0000)
  43 Cu     9.012065    0.032180   21.679681    ( 0.0000,  0.0000,  0.0000)
  44 Cu    11.355616   -0.009993   22.867590    ( 0.0000,  0.0000,  0.0000)
  45 Cu     9.400804    1.884925   23.496023    ( 0.0000,  0.0000,  0.0000)
  46 Cu     3.689075    1.876465   23.462001    ( 0.0000,  0.0000,  0.0000)
  47 Cu     5.522477    0.028733   22.919550    ( 0.0000,  0.0000,  0.0000)
  48 Cu     3.188069    3.769171   10.032816    ( 0.0000,  0.0000,  0.0000)
  49 Cu     1.417184    5.581356   10.625938    ( 0.0000,  0.0000,  0.0000)
  50 Cu     7.315276    5.618246   10.555202    ( 0.0000,  0.0000,  0.0000)
  51 Cu     9.168006    3.750802   10.000731    ( 0.0000,  0.0000,  0.0000)
  52 Cu    11.418625    3.757173   11.225230    ( 0.0000,  0.0000,  0.0000)
  53 Cu     9.676808    5.600316   11.750813    ( 0.0000,  0.0000,  0.0000)
  54 Cu     3.786098    5.632679   11.801645    ( 0.0000,  0.0000,  0.0000)
  55 Cu     5.561935    3.783898   11.138594    ( 0.0000,  0.0000,  0.0000)
  56 Cu     7.902370    3.752799   12.318056    ( 0.0000,  0.0000,  0.0000)
  57 Cu     6.170159    5.625016   12.871913    ( 0.0000,  0.0000,  0.0000)
  58 Cu     0.289536    5.607127   12.949322    ( 0.0000,  0.0000,  0.0000)
  59 Cu     2.044137    3.756312   12.311270    ( 0.0000,  0.0000,  0.0000)
  60 Cu     4.396530    3.752074   13.501303    ( 0.0000,  0.0000,  0.0000)
  61 Cu     2.611453    5.583329   14.118848    ( 0.0000,  0.0000,  0.0000)
  62 Cu     8.483738    5.596674   14.105621    ( 0.0000,  0.0000,  0.0000)
  63 Cu    10.226540    3.750211   13.513219    ( 0.0000,  0.0000,  0.0000)
  64 Cu     0.860158    3.746763   14.690418    ( 0.0000,  0.0000,  0.0000)
  65 Cu    10.812612    5.594708   15.265277    ( 0.0000,  0.0000,  0.0000)
  66 Cu     4.964158    5.599407   15.242898    ( 0.0000,  0.0000,  0.0000)
  67 Cu     6.725133    3.758449   14.684166    ( 0.0000,  0.0000,  0.0000)
  68 Cu     9.051767    3.739204   15.854339    ( 0.0000,  0.0000,  0.0000)
  69 Cu     7.292209    5.595935   16.446841    ( 0.0000,  0.0000,  0.0000)
  70 Cu     1.435922    5.591789   16.456754    ( 0.0000,  0.0000,  0.0000)
  71 Cu     3.193330    3.744952   15.849926    ( 0.0000,  0.0000,  0.0000)
  72 Cu     5.521766    3.738614   17.009917    ( 0.0000,  0.0000,  0.0000)
  73 Cu     3.759668    5.590181   17.605847    ( 0.0000,  0.0000,  0.0000)
  74 Cu     9.623907    5.584707   17.607784    ( 0.0000,  0.0000,  0.0000)
  75 Cu    11.375826    3.737345   17.009233    ( 0.0000,  0.0000,  0.0000)
  76 Cu     1.996858    3.734432   18.199341    ( 0.0000,  0.0000,  0.0000)
  77 Cu     0.247170    5.583587   18.779355    ( 0.0000,  0.0000,  0.0000)
  78 Cu     6.086014    5.580163   18.770892    ( 0.0000,  0.0000,  0.0000)
  79 Cu     7.850628    3.732560   18.213831    ( 0.0000,  0.0000,  0.0000)
[...]
  16 Cu     0.790306    0.071290   14.700963    ( 0.0000,  0.0000,  0.0000)
  17 Cu    10.732645    1.921616   15.265302    ( 0.0000,  0.0000,  0.0000)
  18 Cu     4.903411    1.919873   15.249069    ( 0.0000,  0.0000,  0.0000)
  19 Cu     6.653589    0.067932   14.657010    ( 0.0000,  0.0000,  0.0000)
  20 Cu     8.989048    0.076824   15.835798    ( 0.0000,  0.0000,  0.0000)
  21 Cu     7.236545    1.923472   16.424257    ( 0.0000,  0.0000,  0.0000)
  22 Cu     1.380131    1.925791   16.457317    ( 0.0000,  0.0000,  0.0000)
  23 Cu     3.139139    0.073430   15.838614    ( 0.0000,  0.0000,  0.0000)
  24 Cu     5.484435    0.078899   17.003889    ( 0.0000,  0.0000,  0.0000)
  25 Cu     3.719900    1.928271   17.605382    ( 0.0000,  0.0000,  0.0000)
  26 Cu     9.575249    1.934943   17.608660    ( 0.0000,  0.0000,  0.0000)
  27 Cu    11.323754    0.078968   17.023944    ( 0.0000,  0.0000,  0.0000)
  28 Cu     1.964478    0.084818   18.207147    ( 0.0000,  0.0000,  0.0000)
  29 Cu     0.202809    1.937494   18.791121    ( 0.0000,  0.0000,  0.0000)
  30 Cu     6.062452    1.938325   18.762427    ( 0.0000,  0.0000,  0.0000)
  31 Cu     7.820500    0.084180   18.190039    ( 0.0000,  0.0000,  0.0000)
  32 Cu    10.167446    0.090631   19.364593    ( 0.0000,  0.0000,  0.0000)
  33 Cu     8.429415    1.938374   19.934083    ( 0.0000,  0.0000,  0.0000)
  34 Cu     2.548792    1.941837   19.979525    ( 0.0000,  0.0000,  0.0000)
  35 Cu     4.311916    0.090774   19.335172    ( 0.0000,  0.0000,  0.0000)
  36 Cu     6.641728    0.090316   20.513796    ( 0.0000,  0.0000,  0.0000)
  37 Cu     4.866761    1.936447   21.131336    ( 0.0000,  0.0000,  0.0000)
  38 Cu    10.717938    1.946278   21.164378    ( 0.0000,  0.0000,  0.0000)
  39 Cu     0.782023    0.098681   20.547669    ( 0.0000,  0.0000,  0.0000)
  40 Cu     3.141267    0.069410   21.688371    ( 0.0000,  0.0000,  0.0000)
  41 Cu     1.401184    1.998315   22.287689    ( 0.0000,  0.0000,  0.0000)
  42 Cu     7.246456    1.948632   22.193922    ( 0.0000,  0.0000,  0.0000)
  43 Cu     8.985622    0.099114   21.726077    ( 0.0000,  0.0000,  0.0000)
  44 Cu    11.386880    0.063807   22.932409    ( 0.0000,  0.0000,  0.0000)
  45 Cu     9.473030    1.973788   23.494838    ( 0.0000,  0.0000,  0.0000)
  46 Cu     3.692099    1.871532   23.508698    ( 0.0000,  0.0000,  0.0000)
  47 Cu     5.578790    0.100271   22.814878    ( 0.0000,  0.0000,  0.0000)
  48 Cu     3.033525    3.755069   10.044960    ( 0.0000,  0.0000,  0.0000)
  49 Cu     1.313888    5.573912   10.625595    ( 0.0000,  0.0000,  0.0000)
  50 Cu     7.209898    5.613508   10.541703    ( 0.0000,  0.0000,  0.0000)
  51 Cu     9.079297    3.751100    9.982753    ( 0.0000,  0.0000,  0.0000)
  52 Cu    11.322316    3.760074   11.231610    ( 0.0000,  0.0000,  0.0000)
  53 Cu     9.582436    5.607848   11.734054    ( 0.0000,  0.0000,  0.0000)
  54 Cu     3.681421    5.613644   11.787623    ( 0.0000,  0.0000,  0.0000)
  55 Cu     5.456871    3.763369   11.129092    ( 0.0000,  0.0000,  0.0000)
  56 Cu     7.808288    3.766345   12.289563    ( 0.0000,  0.0000,  0.0000)
  57 Cu     6.068940    5.607130   12.866109    ( 0.0000,  0.0000,  0.0000)
  58 Cu     0.198633    5.625824   12.960899    ( 0.0000,  0.0000,  0.0000)
  59 Cu     1.938763    3.762783   12.312294    ( 0.0000,  0.0000,  0.0000)
  60 Cu     4.317172    3.766562   13.497894    ( 0.0000,  0.0000,  0.0000)
  61 Cu     2.546611    5.605893   14.113795    ( 0.0000,  0.0000,  0.0000)
  62 Cu     8.392557    5.619813   14.088487    ( 0.0000,  0.0000,  0.0000)
  63 Cu    10.129262    3.766647   13.504966    ( 0.0000,  0.0000,  0.0000)
  64 Cu     0.790407    3.769196   14.690066    ( 0.0000,  0.0000,  0.0000)
  65 Cu    10.733240    5.622529   15.269256    ( 0.0000,  0.0000,  0.0000)
  66 Cu     4.907387    5.624119   15.245020    ( 0.0000,  0.0000,  0.0000)
  67 Cu     6.654570    3.770114   14.666302    ( 0.0000,  0.0000,  0.0000)
  68 Cu     8.986400    3.777101   15.848743    ( 0.0000,  0.0000,  0.0000)
  69 Cu     7.236548    5.627059   16.426657    ( 0.0000,  0.0000,  0.0000)
  70 Cu     1.380225    5.628968   16.451336    ( 0.0000,  0.0000,  0.0000)
  71 Cu     3.140476    3.773305   15.851842    ( 0.0000,  0.0000,  0.0000)
  72 Cu     5.481315    3.776061   17.000592    ( 0.0000,  0.0000,  0.0000)
  73 Cu     3.725828    5.631065   17.595765    ( 0.0000,  0.0000,  0.0000)
  74 Cu     9.573363    5.636952   17.607679    ( 0.0000,  0.0000,  0.0000)
  75 Cu    11.328168    3.778109   17.019358    ( 0.0000,  0.0000,  0.0000)
  76 Cu     1.956943    3.781656   18.212704    ( 0.0000,  0.0000,  0.0000)
  77 Cu     0.205392    5.633225   18.789234    ( 0.0000,  0.0000,  0.0000)
  78 Cu     6.059846    5.634310   18.760267    ( 0.0000,  0.0000,  0.0000)
  79 Cu     7.818204    3.783850   18.198834    ( 0.0000,  0.0000,  0.0000)
  80 Cu    10.164122    3.799708   19.363824    ( 0.0000,  0.0000,  0.0000)
  81 Cu     8.425062    5.645964   19.934643    ( 0.0000,  0.0000,  0.0000)
  82 Cu     2.563507    5.637118   19.937676    ( 0.0000,  0.0000,  0.0000)
  83 Cu     4.306503    3.781060   19.340129    ( 0.0000,  0.0000,  0.0000)
  84 Cu     6.628712    3.787582   20.522274    ( 0.0000,  0.0000,  0.0000)
  85 Cu     4.881586    5.634842   21.115989    ( 0.0000,  0.0000,  0.0000)
  86 Cu    10.732146    5.677355   21.171075    ( 0.0000,  0.0000,  0.0000)
  87 Cu     0.765060    3.781232   20.565810    ( 0.0000,  0.0000,  0.0000)
  88 Cu     3.139936    3.799150   21.720232    ( 0.0000,  0.0000,  0.0000)
  89 Cu     1.408205    5.621367   22.232126    ( 0.0000,  0.0000,  0.0000)
  90 Cu     7.234005    5.632192   22.199021    ( 0.0000,  0.0000,  0.0000)
  91 Cu     8.963198    3.805210   21.709371    ( 0.0000,  0.0000,  0.0000)
  92 Cu    11.329793    3.861581   22.876779    ( 0.0000,  0.0000,  0.0000)
  93 Cu     9.479176    5.693200   23.496434    ( 0.0000,  0.0000,  0.0000)
  94 Cu     3.723637    5.653665   23.458317    ( 0.0000,  0.0000,  0.0000)
  95 Cu     5.555726    3.764140   22.842858    ( 0.0000,  0.0000,  0.0000)
  96 Cl    10.119289    3.846281   24.907839    ( 0.0000,  0.0000,  0.0000)
  97 Cl     4.358709    3.766893   24.874960    ( 0.0000,  0.0000,  0.0000)
  98 Cl     4.593824    0.016836   24.903688    ( 0.0000,  0.0000,  0.0000)
  99 Cl     9.216524    0.134594   24.913375    ( 0.0000,  0.0000,  0.0000)
 100 Cl    12.834193    1.186947   24.460290    ( 0.0000,  0.0000,  0.0000)
 101 Cl     5.059345   -0.067896    8.849290    ( 0.0000,  0.0000,  0.0000)
 102 Cl     4.926411    3.642180    8.834842    ( 0.0000,  0.0000,  0.0000)
 103 Cl     0.905104    0.043681    8.948954    ( 0.0000,  0.0000,  0.0000)
 104 Cl    -3.197060    1.910801    8.541487    ( 0.0000,  0.0000,  0.0000)
 105 Cl    -3.135305    5.599222    8.548990    ( 0.0000,  0.0000,  0.0000)

Unit cell:
           periodic     x           y           z      points  spacing
  1. axis:    yes   11.703590    0.000000    0.000000    70     0.1672
  2. axis:    yes    0.000000    7.402000    0.000000    42     0.1762
  3. axis:    no     0.000000    0.000000   33.459128   192     0.1743

  Lengths:  11.703590   7.402000  33.459128
  Angles:   90.000000  90.000000  90.000000

Effective grid spacing dv^(1/3) = 0.1725

     iter     time        total  log10-change:
                         energy  eigst   dens
iter:   1 16:56:51 -7640.207167  -3.89
iter:   2 17:00:52 -7640.204208  -4.96  -3.48
iter:   3 17:04:53 -7640.203997c -5.53  -3.63
iter:   4 17:08:55 -7640.201909c -5.76  -3.60
iter:   5 17:12:58 -7640.201384c -6.04  -3.84
iter:   6 17:17:04 -7640.201293c -6.09  -4.04c
iter:   7 17:21:10 -7640.201266c -6.75  -4.22c
iter:   8 17:25:16 -7640.201243c -6.52  -4.33c
iter:   9 17:29:21 -7640.201291c -7.01  -4.51c
iter:  10 17:33:26 -7640.201219c -7.29  -4.48c
iter:  11 17:37:30 -7640.201207c -7.75c -4.75c

Converged after 11 iterations.

Dipole moment: (12.384769, -70.851230, -0.116779) |e|*Ang

Energy contributions relative to reference atoms: (reference = -4447608.870705)

Kinetic:       +764.293049
Potential:     -837.668871
External:        +0.000000
XC:            -7565.047364
Entropy (-ST):   -0.961607
Local:           -1.297219
--------------------------
Free energy:   -7640.682011
Extrapolated:  -7640.201207

Showing only first 2 kpts
 Kpt  Band  Eigenvalues  Occupancy
  0   561      0.27541    0.74443
  0   562      0.31915    0.55372
  0   563      0.36768    0.38142
  0   564      0.41271    0.26118

  1   561     -0.04882    1.87635
  1   562      0.00369    1.79950
  1   563      0.06423    1.66097
  1   564      0.12377    1.45965


Fermi level: 0.22314

No gap

Forces in eV/Ang:
  0 Cu   -0.00206    0.00432   -0.00564
  1 Cu   -0.00119   -0.00188    0.00072
  2 Cu    0.00012    0.00233   -0.00194
  3 Cu    0.00286    0.00243    0.00358
  4 Cu   -0.00184    0.00262   -0.00344
  5 Cu    0.00061    0.00398   -0.00182
  6 Cu    0.00385   -0.00134   -0.00131
  7 Cu    0.00513    0.00833   -0.00051
  8 Cu   -0.00322   -0.00187   -0.00492
  9 Cu    0.00900    0.00795   -0.00227
 10 Cu    0.00196    0.00257    0.00510
 11 Cu   -0.00088   -0.00231   -0.00558
 12 Cu    0.00935    0.00223   -0.00900
 13 Cu    0.00192    0.00073    0.00558
 14 Cu   -0.00118   -0.00297    0.00290
 15 Cu    0.00499    0.00106   -0.00213
 16 Cu    0.00297    0.00239    0.01006
 17 Cu   -0.00121    0.00453   -0.00379
 18 Cu   -0.00406    0.00118   -0.00046
 19 Cu   -0.00259   -0.00058    0.00231
 20 Cu    0.00199    0.00117   -0.01149
 21 Cu   -0.00794    0.00797    0.01193
 22 Cu   -0.00826    0.00172    0.00803
 23 Cu   -0.00163    0.00155   -0.00142
 24 Cu   -0.00734    0.00033   -0.00164
 25 Cu   -0.01213    0.00497    0.00964
 26 Cu    0.00211   -0.00209    0.00130
 27 Cu   -0.00073    0.00140   -0.00621
 28 Cu    0.00040    0.00418    0.01594
 29 Cu   -0.00410   -0.00357    0.00476
 30 Cu   -0.00146   -0.00518    0.00501
 31 Cu    0.00588   -0.00414   -0.00856
 32 Cu   -0.01111   -0.00278   -0.00764
 33 Cu   -0.00864   -0.00034    0.00240
 34 Cu   -0.00619   -0.00293    0.00173
 35 Cu    0.00674   -0.00397   -0.00580
 36 Cu   -0.00262   -0.00568   -0.00322
 37 Cu    0.00006   -0.00414   -0.00230
 38 Cu    0.00569   -0.00261    0.00193
 39 Cu   -0.00894   -0.00110    0.00617
 40 Cu    0.00524   -0.00166    0.00367
 41 Cu    0.02294   -0.00889    0.00375
 42 Cu   -0.00509   -0.00016   -0.00759
 43 Cu   -0.01274    0.00449   -0.01066
 44 Cu    0.00153    0.00006    0.00770
 45 Cu   -0.00681   -0.01310    0.00495
 46 Cu    0.01260   -0.00308   -0.01097
 47 Cu    0.00750   -0.00131   -0.00024
 48 Cu   -0.00720    0.00355    0.00039
 49 Cu   -0.00167    0.00759   -0.00357
 50 Cu   -0.00180    0.00147    0.00306
 51 Cu    0.00226    0.00447   -0.00233
 52 Cu   -0.00715    0.00183   -0.00924
 53 Cu   -0.00414   -0.00196    0.00371
 54 Cu    0.01035    0.00379   -0.00237
 55 Cu    0.00555    0.00090   -0.00564
 56 Cu   -0.00307    0.00410    0.00021
 57 Cu   -0.00646   -0.00014    0.00648
 58 Cu    0.00661    0.00789   -0.00031
 59 Cu    0.00310    0.00095   -0.00568
 60 Cu   -0.00067    0.00211   -0.00668
 61 Cu   -0.01091    0.00221    0.00840
 62 Cu   -0.00620    0.00308    0.00058
 63 Cu    0.00504    0.01018    0.01012
 64 Cu   -0.00503    0.00240    0.00090
 65 Cu   -0.00008    0.00294   -0.00172
 66 Cu   -0.01077    0.00240    0.00491
 67 Cu   -0.00105    0.00195    0.00026
 68 Cu   -0.00111   -0.00010   -0.00772
 69 Cu   -0.00221    0.00202    0.00801
 70 Cu   -0.00716   -0.00141    0.00871
 71 Cu   -0.00415    0.00281   -0.00696
 72 Cu   -0.00588    0.00514   -0.00525
 73 Cu   -0.00823    0.00598    0.00333
 74 Cu   -0.00102   -0.00030    0.00182
 75 Cu   -0.00565    0.00002    0.00845
 76 Cu    0.00656    0.00366   -0.00525
 77 Cu    0.00137    0.00133    0.00086
 78 Cu    0.00320   -0.00562   -0.00003
 79 Cu   -0.00145    0.00051   -0.01066
 80 Cu   -0.00566   -0.00287   -0.00843
 81 Cu    0.00144   -0.00558    0.01211
 82 Cu    0.00262   -0.00256    0.00340
 83 Cu    0.00718   -0.00452   -0.00511
 84 Cu    0.00118   -0.00101    0.00216
 85 Cu   -0.00033   -0.00322   -0.00522
 86 Cu    0.00100   -0.00196    0.00285
 87 Cu    0.00650   -0.00534   -0.00477
 88 Cu   -0.00195   -0.00459   -0.00435
 89 Cu    0.00923    0.00637   -0.00080
 90 Cu   -0.00843   -0.00172   -0.00802
 91 Cu    0.00461   -0.00249    0.00186
 92 Cu    0.01188   -0.02435    0.00764
 93 Cu    0.00125    0.00114    0.00247
 94 Cu    0.00234   -0.00223   -0.00553
 95 Cu    0.00363    0.00150    0.00304
 96 Cl    0.01821   -0.01133   -0.01658
 97 Cl   -0.00883   -0.00681   -0.01073
 98 Cl    0.00838   -0.00382   -0.01103
 99 Cl   -0.00537   -0.01068    0.00385
100 Cl   -0.00789    0.00176   -0.01043
101 Cl    0.00305    0.00652   -0.01165
102 Cl    0.00208    0.00499   -0.01774
103 Cl   -0.00589   -0.00197   -0.00956
104 Cl    0.00579    0.00419    0.00655
105 Cl   -0.00693    0.00217    0.00943

Timing:                                      incl.     excl.
-------------------------------------------------------------------
Density initialized from wave functions:   591.356   591.353   0.4% |
 Symmetrize density:                         0.003     0.003   0.0% |
Forces:                                   4041.651  4041.651   2.5% ||
Hamiltonian:                               713.441     1.037   0.0% |
 Atomic:                                    23.284     2.685   0.0% |
  XC Correction:                            20.599    20.599   0.0% |
 Calculate atomic Hamiltonians:            289.020   289.020   0.2% |
 Communicate:                               20.741    20.741   0.0% |
 Initialize Hamiltonian:                     0.001     0.001   0.0% |
 Poisson:                                    0.441     0.441   0.0% |
 XC 3D grid:                               378.917    61.944   0.0% |
  VdW-DF integral:                         316.973     2.387   0.0% |
   Convolution:                             32.508    32.508   0.0% |
   FFT:                                     11.423    11.423   0.0% |
   gather:                                  94.685    94.685   0.1% |
   hmm1:                                    15.628    15.628   0.0% |
   hmm2:                                    15.327    15.327   0.0% |
   iFFT:                                    11.891    11.891   0.0% |
   potential:                              126.804     1.310   0.0% |
    collect:                                15.046    15.046   0.0% |
    p1:                                     65.378    65.378   0.0% |
    p2:                                     24.207    24.207   0.0% |
    sum:                                    20.863    20.863   0.0% |
   splines:                                  6.320     6.320   0.0% |
LCAO initialization:                      1049.293     0.613   0.0% |
 LCAO eigensolver:                          31.749     0.003   0.0% |
  Blacs Orbital Layouts:                     4.750     0.001   0.0% |
   General diagonalize:                      4.721     4.721   0.0% |
   Redistribute coefs:                       0.019     0.019   0.0% |
   Send coefs to domains:                    0.010     0.010   0.0% |
  Calculate projections:                     0.022     0.022   0.0% |
  Distribute overlap matrix:                26.381     0.003   0.0% |
   Scalapack redistribute:                   0.046     0.046   0.0% |
   blocked summation:                       26.333    26.333   0.0% |
  Potential matrix:                          0.261     0.261   0.0% |
  SparseAtomicCorrection:                    0.016     0.016   0.0% |
  Sum over cells:                            0.315     0.315   0.0% |
 LCAO to grid:                            1009.833  1009.833   0.6% |
 Set positions (LCAO WFS):                   7.098     0.105   0.0% |
  Basic WFS set positions:                   0.006     0.006   0.0% |
  Basis functions set positions:             0.001     0.001   0.0% |
  P tci:                                     0.000     0.000   0.0% |
  ST tci:                                    1.163     1.163   0.0% |
  Scalapack redistribute:                    0.695     0.695   0.0% |
  blocked summation:                         4.805     4.805   0.0% |
  mktci:                                     0.323     0.323   0.0% |
PWDescriptor:                                1.555     1.555   0.0% |
Redistribute:                                0.052     0.052   0.0% |
SCF-cycle:                               154061.333  2979.116   1.8% ||
 Davidson:                               130698.276 42061.460  26.0% |---------|
  Apply H:                                7685.347  7541.389   4.7% |-|
   HMM T:                                  143.958   143.958   0.1% |
  Subspace diag:                         19575.485     0.140   0.0% |
   calc_h_matrix:                        11871.169  4156.519   2.6% ||
    Apply H:                              7714.651  7551.862   4.7% |-|
     HMM T:                                162.789   162.789   0.1% |
   diagonalize:                            468.165   468.165   0.3% |
   rotate_psi:                            7236.011  7236.011   4.5% |-|
  calc. matrices:                        43360.339 28605.328  17.7% |------|
   Apply H:                              14755.011 14468.023   8.9% |---|
    HMM T:                                 286.988   286.988   0.2% |
  diagonalize:                            3644.901  3644.901   2.3% ||
  rotate_psi:                            14370.745 14370.745   8.9% |---|
 Density:                                 9070.963     0.040   0.0% |
  Atomic density matrices:                  23.009    23.009   0.0% |
  Mix:                                    4644.731  4644.731   2.9% ||
  Multipole moments:                         1.371     1.371   0.0% |
  Pseudo density:                         4401.811  4401.768   2.7% ||
   Symmetrize density:                       0.043     0.043   0.0% |
 Hamiltonian:                            10276.043    15.104   0.0% |
  Atomic:                                  380.263    76.133   0.0% |
   XC Correction:                          304.130   304.130   0.2% |
  Calculate atomic Hamiltonians:          4206.841  4206.841   2.6% ||
  Communicate:                             286.547   286.547   0.2% |
  Poisson:                                   6.659     6.659   0.0% |
  XC 3D grid:                             5380.629   791.437   0.5% |
   VdW-DF integral:                       4589.192    34.350   0.0% |
    Convolution:                           459.189   459.189   0.3% |
    FFT:                                   167.520   167.520   0.1% |
    gather:                               1444.351  1444.351   0.9% |
    hmm1:                                  224.249   224.249   0.1% |
    hmm2:                                  219.414   219.414   0.1% |
    iFFT:                                  167.952   167.952   0.1% |
    potential:                            1872.161    18.721   0.0% |
     collect:                              225.911   225.911   0.1% |
     p1:                                   955.504   955.504   0.6% |
     p2:                                   343.535   343.535   0.2% |
     sum:                                  328.489   328.489   0.2% |
    splines:                                 0.006     0.006   0.0% |
 Orthonormalize:                          1036.934     0.017   0.0% |
  calc_s_matrix:                           134.280   134.280   0.1% |
  inverse-cholesky:                         29.632    29.632   0.0% |
  projections:                             643.968   643.968   0.4% |
  rotate_psi_s:                            229.038   229.038   0.1% |
Set symmetry:                                0.002     0.002   0.0% |
Other:                                    1290.806  1290.806   0.8% |
-------------------------------------------------------------------
Total:                                             161749.489 100.0%

Memory usage: 2.52 GiB
Date: Thu Oct 20 17:39:10 2022
