
  ___ ___ ___ _ _ _  
 |   |   |_  | | | | 
 | | | | | . | | | | 
 |__ |  _|___|_____|  22.1.0
 |___|_|             

User:   thorkong@node425.cluster
Date:   Tue Apr 18 01:46:42 2023
Arch:   x86_64
Pid:    3388
Python: 3.10.5
gpaw:   /groups/kemi/thorkong/miniconda3/envs/gpaw22/lib/python3.10/site-packages/gpaw
_gpaw:  /groups/kemi/thorkong/miniconda3/envs/gpaw22/lib/python3.10/site-packages/
        _gpaw.cpython-310-x86_64-linux-gnu.so
ase:    /groups/kemi/thorkong/miniconda3/envs/gpaw22/lib/python3.10/site-packages/ase (version 3.22.1)
numpy:  /groups/kemi/thorkong/miniconda3/envs/gpaw22/lib/python3.10/site-packages/numpy (version 1.23.0)
scipy:  /groups/kemi/thorkong/miniconda3/envs/gpaw22/lib/python3.10/site-packages/scipy (version 1.8.1)
libxc:  5.2.3
units:  Angstrom and eV
cores: 32
OpenMP: True
OMP_NUM_THREADS: 1

Input parameters:
  basis: dzp
  kpts: [4 4 1]
  mode: {ecut: 600.0,
         name: pw}
  xc: BEEF-vdW

System changes: positions, numbers, cell, pbc, initial_charges, initial_magmoms 

Initialize ...

Cu-setup:
  name: Copper
  id: f1c4d45d90492f1bbfdcb091e8418fdf
  Z: 29.0
  valence: 11
  core: 18
  charge: 0.0
  file: /groups/kemi/thorkong/miniconda3/envs/gpaw22/share/gpaw/Cu.PBE.gz
  compensation charges: gauss, rc=0.33, lmax=2
  cutoffs: 2.06(filt), 2.43(core),
  valence states:
                energy  radius
    4s(1.00)    -4.609   1.164
    4p(0.00)    -0.698   1.164
    3d(10.00)    -5.039   1.058
    *s          22.603   1.164
    *p          26.513   1.164
    *d          22.172   1.058

  LCAO basis set for Cu:
    Name: dzp
    File: /groups/kemi/thorkong/miniconda3/envs/gpaw22/share/gpaw/Cu.dzp.basis.gz
    Number of radial functions: 5
    Number of spherical harmonics: 15
      l=0, rc=8.9688 Bohr: 4s-sz confined orbital
      l=2, rc=5.1719 Bohr: 3d-sz confined orbital
      l=0, rc=5.3281 Bohr: 4s-dz split-valence wave
      l=2, rc=3.1406 Bohr: 3d-dz split-valence wave
      l=1, rc=8.9688 Bohr: p-type Gaussian polarization

Cl-setup:
  name: Chlorine
  id: 726897f06f34e53cf8e33b5885a02604
  Z: 17.0
  valence: 7
  core: 10
  charge: 0.0
  file: /groups/kemi/thorkong/miniconda3/envs/gpaw22/share/gpaw/Cl.PBE.gz
  compensation charges: gauss, rc=0.25, lmax=2
  cutoffs: 1.40(filt), 1.49(core),
  valence states:
                energy  radius
    3s(2.00)   -20.689   0.794
    3p(5.00)    -8.594   0.794
    *s           6.523   0.794
    *p          18.617   0.794
    *d           0.000   0.794

  LCAO basis set for Cl:
    Name: dzp
    File: /groups/kemi/thorkong/miniconda3/envs/gpaw22/share/gpaw/Cl.dzp.basis.gz
    Number of radial functions: 5
    Number of spherical harmonics: 13
      l=0, rc=5.1719 Bohr: 3s-sz confined orbital
      l=1, rc=6.2656 Bohr: 3p-sz confined orbital
      l=0, rc=2.8281 Bohr: 3s-dz split-valence wave
      l=1, rc=3.5156 Bohr: 3p-dz split-valence wave
      l=2, rc=6.2656 Bohr: d-type Gaussian polarization

Reference energy: -5113415.786755

Spin-paired calculation

Convergence criteria:
 Maximum [total energy] change in last 3 cyles: 0.0005 eV / electron
 Maximum integral of absolute [dens]ity change: 0.0001 electrons / valence electron
 Maximum integral of absolute [eigenst]ate change: 4e-08 eV^2 / valence electron
 Maximum number of scf [iter]ations: 333
 (Square brackets indicate name in SCF output, whereas a 'c' in
 the SCF output indicates the quantity has converged.)

Symmetries present (total): 1

  ( 1  0  0)
  ( 0  1  0)
  ( 0  0  1)

16 k-points: 4 x 4 x 1 Monkhorst-Pack grid
8 k-points in the irreducible part of the Brillouin zone
       k-points in crystal coordinates                weights
   0:     0.12500000   -0.37500000    0.00000000          2/16
   1:     0.12500000   -0.12500000    0.00000000          2/16
   2:     0.12500000    0.12500000    0.00000000          2/16
   3:     0.12500000    0.37500000    0.00000000          2/16
   4:     0.37500000   -0.37500000    0.00000000          2/16
   5:     0.37500000   -0.12500000    0.00000000          2/16
   6:     0.37500000    0.12500000    0.00000000          2/16
   7:     0.37500000    0.37500000    0.00000000          2/16

Wave functions: Plane wave expansion
  Cutoff energy: 600.000 eV
  Number of coefficients (min, max): 109260, 109338
  Pulay-stress correction: 0.000000 eV/Ang^3 (de/decut=0.000000)
  Using FFTW library
  ScaLapack parameters: grid=2x2, blocksize=64
  Wavefunction extrapolation:
    Improved wavefunction reuse through dual PAW basis 

Occupation numbers: Fermi-Dirac: width=0.1000 eV
 

Eigensolver
   Davidson(niter=2) 

Densities:
  Coarse grid: 90*45*175 grid
  Fine grid: 180*90*350 grid
  Total Charge: 0.000000 

Density mixing:
  Method: separate
  Backend: pulay
  Linear mixing parameter: 0.05
  Mixing with 5 old densities
  Damping of long wave oscillations: 50 

Hamiltonian:
  XC and Coulomb potentials evaluated on a 180*90*350 grid
  Using the BEEF-vdW Exchange-Correlation functional
  External potential:
    NoExternalPotential
 

XC parameters: BEEF-vdW with 2 nearest neighbor stencil

Memory estimate:
  Process memory now: 413.53 MiB
  Calculator: 2926.57 MiB
    Density: 85.03 MiB
      Arrays: 35.16 MiB
      Localized functions: 36.27 MiB
      Mixer: 13.60 MiB
    Hamiltonian: 23.87 MiB
      Arrays: 22.99 MiB
      XC: 0.00 MiB
      Poisson: 0.00 MiB
      vbar: 0.88 MiB
    Wavefunctions: 2817.66 MiB
      Arrays psit_nG: 1336.36 MiB
      Eigensolver: 1442.63 MiB
      Projections: 6.73 MiB
      Projectors: 4.17 MiB
      PW-descriptor: 27.77 MiB

Total number of cores used: 32
Parallelization over k-points: 8
Domain decomposition: 2 x 1 x 2
                      4 x 2 x 4 (xc only)

Number of atoms: 128
Number of atomic orbitals: 1880
Number of bands in calculation: 801
Number of valence electrons: 1328
Bands to converge: occupied

... initialized

Initializing position-dependent things.

Density initialized from atomic densities
Creating initial wave functions:
  801 bands from LCAO basis set

                                                                  
                                                                  
                                                                  
                                                                  
                                                                  
                       Cl        Cl               Cl              
                        CCl    CCl   Cu  Cl Cu    Cu     Cu       
                  Cl                                              
                    Cu    CCl    CCl   Cu    Clu    Cu            
               Cu    CCu   CCu    Cu    CCu   CCu    Cu           
                                                                  
                Cu    Cu     Cu    Cu     Cu    Cu                
           Cu    CCu   CCu    CCu   CCu    CCu   Cu               
                                                                  
            Cu     Cu   CCu    CCu   CCu    CCu   Cu     Cu       
        Cu    Cu     Cu    Cu     Cu    Cu                        
                    Cu    Cu     Cu    Cu     Cu    Cu            
               Cu    CCu   CCu    Cu    CCu   CCu    Cu           
                                                                  
                Cu    Cu     Cu    Cu     Cu    Cu                
           Cu    CCu   CCu    CCu   CCu    CCu   Cu               
                                                                  
            Cu   ClCu    Cu     Cu Cl Cu    CCu                   
        Cu    Cu     Cu  ClCu   ClCu   CCu                        
                                              Cl                  
                 Cl         Cl    Cl                              
                                                                  
                                                                  
                                                                  
                                                                  
                                                                  

Positions:
   0 Cu     2.893944   -0.000002   10.003395    ( 0.0000,  0.0000,  0.0000)
   1 Cu     4.202445    2.266388   10.003396    ( 0.0000,  0.0000,  0.0000)
   2 Cu     0.276942   -0.000002   10.003396    ( 0.0000,  0.0000,  0.0000)
   3 Cu     1.585443    2.266388   10.003395    ( 0.0000,  0.0000,  0.0000)
   4 Cu     2.894193    3.021994   12.133835    ( 0.0000,  0.0000,  0.0000)
   5 Cu     1.585692    0.755604   12.133835    ( 0.0000,  0.0000,  0.0000)
   6 Cu     5.511195    3.021994   12.133835    ( 0.0000,  0.0000,  0.0000)
   7 Cu     4.202694    0.755604   12.133835    ( 0.0000,  0.0000,  0.0000)
   8 Cu     5.511307    1.511131   14.271946    ( 0.0000,  0.0000,  0.0000)
   9 Cu     6.819808    3.777521   14.271946    ( 0.0000,  0.0000,  0.0000)
  10 Cu     2.894304    1.511131   14.271946    ( 0.0000,  0.0000,  0.0000)
  11 Cu     4.202806    3.777521   14.271946    ( 0.0000,  0.0000,  0.0000)
  12 Cu     2.893612   -0.000196   16.411707    ( 0.0000,  0.0000,  0.0000)
  13 Cu     4.202113    2.266195   16.411707    ( 0.0000,  0.0000,  0.0000)
  14 Cu     0.276610   -0.000196   16.411707    ( 0.0000,  0.0000,  0.0000)
  15 Cu     1.585111    2.266195   16.411707    ( 0.0000,  0.0000,  0.0000)
  16 Cu     2.893704    3.021712   18.549871    ( 0.0000,  0.0000,  0.0000)
  17 Cu     1.585203    0.755322   18.549871    ( 0.0000,  0.0000,  0.0000)
  18 Cu     5.510706    3.021712   18.549871    ( 0.0000,  0.0000,  0.0000)
  19 Cu     4.202205    0.755322   18.549871    ( 0.0000,  0.0000,  0.0000)
  20 Cu     5.510953    1.510928   20.680296    ( 0.0000,  0.0000,  0.0000)
  21 Cu     6.819454    3.777319   20.680296    ( 0.0000,  0.0000,  0.0000)
  22 Cu     2.893951    1.510928   20.680296    ( 0.0000,  0.0000,  0.0000)
  23 Cu     4.202452    3.777319   20.680296    ( 0.0000,  0.0000,  0.0000)
  24 Cu     5.510946    4.532778   10.003395    ( 0.0000,  0.0000,  0.0000)
  25 Cu     2.893944    4.532778   10.003396    ( 0.0000,  0.0000,  0.0000)
  26 Cu     4.202694    5.288385   12.133835    ( 0.0000,  0.0000,  0.0000)
  27 Cu     6.819696    5.288385   12.133835    ( 0.0000,  0.0000,  0.0000)
  28 Cu     8.128309    6.043912   14.271946    ( 0.0000,  0.0000,  0.0000)
  29 Cu     5.511307    6.043912   14.271946    ( 0.0000,  0.0000,  0.0000)
  30 Cu     5.510614    4.532585   16.411707    ( 0.0000,  0.0000,  0.0000)
  31 Cu     2.893612    4.532585   16.411707    ( 0.0000,  0.0000,  0.0000)
  32 Cu     4.202205    5.288103   18.549871    ( 0.0000,  0.0000,  0.0000)
  33 Cu     6.819207    5.288103   18.549871    ( 0.0000,  0.0000,  0.0000)
  34 Cu     8.127955    6.043709   20.680296    ( 0.0000,  0.0000,  0.0000)
  35 Cu     5.510953    6.043709   20.680296    ( 0.0000,  0.0000,  0.0000)
  36 Cu     5.510946   -0.000002   10.003396    ( 0.0000,  0.0000,  0.0000)
  37 Cu     6.819448    2.266388   10.003396    ( 0.0000,  0.0000,  0.0000)
  38 Cu     8.128197    3.021994   12.133835    ( 0.0000,  0.0000,  0.0000)
  39 Cu     6.819696    0.755604   12.133835    ( 0.0000,  0.0000,  0.0000)
  40 Cu     8.128309    1.511131   14.271946    ( 0.0000,  0.0000,  0.0000)
  41 Cu     9.436810    3.777521   14.271946    ( 0.0000,  0.0000,  0.0000)
  42 Cu     5.510614   -0.000196   16.411706    ( 0.0000,  0.0000,  0.0000)
  43 Cu     6.819115    2.266195   16.411707    ( 0.0000,  0.0000,  0.0000)
  44 Cu     8.127709    3.021712   18.549871    ( 0.0000,  0.0000,  0.0000)
  45 Cu     6.819207    0.755322   18.549871    ( 0.0000,  0.0000,  0.0000)
  46 Cu     8.127955    1.510928   20.680296    ( 0.0000,  0.0000,  0.0000)
  47 Cu     9.436456    3.777319   20.680296    ( 0.0000,  0.0000,  0.0000)
  48 Cu     8.127949    4.532778   10.003395    ( 0.0000,  0.0000,  0.0000)
  49 Cu     9.436698    5.288385   12.133835    ( 0.0000,  0.0000,  0.0000)
  50 Cu    10.745311    6.043912   14.271946    ( 0.0000,  0.0000,  0.0000)
  51 Cu     8.127616    4.532585   16.411707    ( 0.0000,  0.0000,  0.0000)
  52 Cu     9.436210    5.288103   18.549871    ( 0.0000,  0.0000,  0.0000)
  53 Cu    10.744957    6.043709   20.680296    ( 0.0000,  0.0000,  0.0000)
  54 Cu    10.744951   -0.000002   10.003395    ( 0.0000,  0.0000,  0.0000)
  55 Cu    12.053452    2.266388   10.003396    ( 0.0000,  0.0000,  0.0000)
  56 Cu     8.127949   -0.000002   10.003396    ( 0.0000,  0.0000,  0.0000)
  57 Cu     9.436450    2.266388   10.003395    ( 0.0000,  0.0000,  0.0000)
  58 Cu    10.745200    3.021994   12.133835    ( 0.0000,  0.0000,  0.0000)
  59 Cu     9.436699    0.755604   12.133835    ( 0.0000,  0.0000,  0.0000)
  60 Cu    13.362202    3.021994   12.133835    ( 0.0000,  0.0000,  0.0000)
  61 Cu    12.053701    0.755604   12.133835    ( 0.0000,  0.0000,  0.0000)
  62 Cu    13.362314    1.511131   14.271946    ( 0.0000,  0.0000,  0.0000)
  63 Cu    14.670815    3.777521   14.271946    ( 0.0000,  0.0000,  0.0000)
  64 Cu    10.745311    1.511131   14.271946    ( 0.0000,  0.0000,  0.0000)
  65 Cu    12.053813    3.777521   14.271946    ( 0.0000,  0.0000,  0.0000)
  66 Cu    10.744619   -0.000196   16.411707    ( 0.0000,  0.0000,  0.0000)
  67 Cu    12.053120    2.266195   16.411707    ( 0.0000,  0.0000,  0.0000)
  68 Cu     8.127617   -0.000196   16.411707    ( 0.0000,  0.0000,  0.0000)
  69 Cu     9.436118    2.266195   16.411707    ( 0.0000,  0.0000,  0.0000)
  70 Cu    10.744711    3.021712   18.549871    ( 0.0000,  0.0000,  0.0000)
  71 Cu     9.436210    0.755322   18.549871    ( 0.0000,  0.0000,  0.0000)
  72 Cu    13.361713    3.021712   18.549871    ( 0.0000,  0.0000,  0.0000)
  73 Cu    12.053212    0.755322   18.549871    ( 0.0000,  0.0000,  0.0000)
  74 Cu    13.361960    1.510928   20.680296    ( 0.0000,  0.0000,  0.0000)
  75 Cu    14.670461    3.777319   20.680296    ( 0.0000,  0.0000,  0.0000)
  76 Cu    10.744958    1.510928   20.680296    ( 0.0000,  0.0000,  0.0000)
  77 Cu    12.053459    3.777319   20.680296    ( 0.0000,  0.0000,  0.0000)
  78 Cu    13.361953    4.532778   10.003395    ( 0.0000,  0.0000,  0.0000)
  79 Cu    10.744951    4.532778   10.003396    ( 0.0000,  0.0000,  0.0000)
  80 Cu    12.053701    5.288385   12.133835    ( 0.0000,  0.0000,  0.0000)
  81 Cu    14.670703    5.288385   12.133835    ( 0.0000,  0.0000,  0.0000)
  82 Cu    15.979316    6.043912   14.271946    ( 0.0000,  0.0000,  0.0000)
  83 Cu    13.362314    6.043912   14.271946    ( 0.0000,  0.0000,  0.0000)
  84 Cu    13.361621    4.532585   16.411707    ( 0.0000,  0.0000,  0.0000)
  85 Cu    10.744619    4.532585   16.411707    ( 0.0000,  0.0000,  0.0000)
  86 Cu    12.053212    5.288103   18.549871    ( 0.0000,  0.0000,  0.0000)
  87 Cu    14.670214    5.288103   18.549871    ( 0.0000,  0.0000,  0.0000)
  88 Cu    15.978962    6.043709   20.680296    ( 0.0000,  0.0000,  0.0000)
  89 Cu    13.361960    6.043709   20.680296    ( 0.0000,  0.0000,  0.0000)
  90 Cu    13.361953   -0.000002   10.003396    ( 0.0000,  0.0000,  0.0000)
  91 Cu    14.670455    2.266388   10.003396    ( 0.0000,  0.0000,  0.0000)
  92 Cu    15.979204    3.021994   12.133835    ( 0.0000,  0.0000,  0.0000)
  93 Cu    14.670703    0.755604   12.133835    ( 0.0000,  0.0000,  0.0000)
  94 Cu    15.979316    1.511131   14.271946    ( 0.0000,  0.0000,  0.0000)
  95 Cu    17.287817    3.777521   14.271946    ( 0.0000,  0.0000,  0.0000)
  96 Cu    13.361621   -0.000196   16.411706    ( 0.0000,  0.0000,  0.0000)
  97 Cu    14.670122    2.266195   16.411707    ( 0.0000,  0.0000,  0.0000)
  98 Cu    15.978716    3.021712   18.549871    ( 0.0000,  0.0000,  0.0000)
  99 Cu    14.670214    0.755322   18.549871    ( 0.0000,  0.0000,  0.0000)
 100 Cu    15.978962    1.510928   20.680296    ( 0.0000,  0.0000,  0.0000)
 101 Cu    17.287463    3.777319   20.680296    ( 0.0000,  0.0000,  0.0000)
 102 Cu    15.978956    4.532778   10.003395    ( 0.0000,  0.0000,  0.0000)
 103 Cu    17.287705    5.288385   12.133835    ( 0.0000,  0.0000,  0.0000)
 104 Cu    18.596318    6.043912   14.271946    ( 0.0000,  0.0000,  0.0000)
 105 Cu    15.978623    4.532585   16.411707    ( 0.0000,  0.0000,  0.0000)
 106 Cu    17.287217    5.288103   18.549871    ( 0.0000,  0.0000,  0.0000)
 107 Cu    18.595964    6.043709   20.680296    ( 0.0000,  0.0000,  0.0000)
 108 Cl     4.102113    1.366195   22.511707    ( 0.0000,  0.0000,  0.0000)
 109 Cl     6.819115    2.266195   22.511707    ( 0.0000,  0.0000,  0.0000)
 110 Cl     5.510614    4.532585   22.511707    ( 0.0000,  0.0000,  0.0000)
 111 Cl     8.236210   -1.044678   22.449871    ( 0.0000,  0.0000,  0.0000)
 112 Cl    11.053212   -0.044678   22.449871    ( 0.0000,  0.0000,  0.0000)
 113 Cl     9.744711    2.221712   22.449871    ( 0.0000,  0.0000,  0.0000)
 114 Cl    12.961621    2.932585   22.511707    ( 0.0000,  0.0000,  0.0000)
 115 Cl    16.378623    4.632585   22.511707    ( 0.0000,  0.0000,  0.0000)
 116 Cl    15.370122   -0.233805   22.511707    ( 0.0000,  0.0000,  0.0000)
 117 Cl     9.344711    5.121712   22.449871    ( 0.0000,  0.0000,  0.0000)
 118 Cl    14.913790    2.802764    7.865423    ( 0.0000,  0.0000,  0.0000)
 119 Cl    12.196788    3.702764    7.865423    ( 0.0000,  0.0000,  0.0000)
 120 Cl    13.505289    5.969154    7.865423    ( 0.0000,  0.0000,  0.0000)
 121 Cl    10.779693    0.391891    7.927259    ( 0.0000,  0.0000,  0.0000)
 122 Cl     7.962691    1.391891    7.927259    ( 0.0000,  0.0000,  0.0000)
 123 Cl     9.271192    3.658281    7.927259    ( 0.0000,  0.0000,  0.0000)
 124 Cl     6.054282    4.369154    7.865423    ( 0.0000,  0.0000,  0.0000)
 125 Cl     2.637280    6.069154    7.865423    ( 0.0000,  0.0000,  0.0000)
 126 Cl     3.645781    1.202764    7.865423    ( 0.0000,  0.0000,  0.0000)
 127 Cl     9.671192    6.558281    7.927259    ( 0.0000,  0.0000,  0.0000)

Unit cell:
           periodic     x           y           z      points  spacing
  1. axis:    yes   15.702014    0.000000    0.000000    90     0.1511
  2. axis:    yes    3.925503    6.799171    0.000000    45     0.1511
  3. axis:    yes    0.000000    0.000000   30.683867   175     0.1753

  Lengths:  15.702014   7.851006  30.683867
  Angles:   90.000000  90.000000  60.000001

Effective grid spacing dv^(1/3) = 0.1666

     iter     time        total  log10-change:
                         energy  eigst   dens
iter:   1 02:15:40 -9704.329005
iter:   2 02:21:58 -9726.097867  +1.28  -0.73
iter:   3 02:28:35 -9307.368887  +0.87  -0.80
iter:   4 02:34:52 -10009.760195  +0.81  -1.00
iter:   5 02:41:35 -9014.845112  -0.47  -0.74
iter:   6 02:48:05 -9095.769312  -0.75  -1.34
iter:   7 02:54:29 -9025.303142  -1.30  -1.19
iter:   8 03:00:46 -8923.831013  -1.46  -1.30
iter:   9 03:08:22 -8908.782114  -1.94  -1.56
iter:  10 03:15:13 -8904.437690  -2.47  -1.59
iter:  11 03:22:38 -8901.216050  -1.83  -1.63
iter:  12 03:28:59 -8903.321434  -2.21  -1.70
iter:  13 03:35:29 -8909.590619  -2.04  -1.77
iter:  14 03:41:50 -8905.140416  -2.54  -1.87
iter:  15 03:48:10 -8900.544693  -2.09  -1.96
iter:  16 03:55:04 -8899.701526  -3.39  -2.20
iter:  17 04:01:27 -8899.080653  -2.91  -2.35
iter:  18 04:07:54 -8898.988513  -3.83  -2.48
iter:  19 04:14:09 -8899.161462c -3.36  -2.53
iter:  20 04:20:49 -8898.928142c -4.05  -2.49
iter:  21 04:28:46 -8898.977501c -3.82  -2.66
iter:  22 04:35:10 -8898.923137c -4.00  -2.70
iter:  23 04:41:29 -8898.873991c -4.57  -2.75
iter:  24 04:48:17 -8898.865472c -4.30  -2.84
iter:  25 04:55:11 -8898.849388c -4.73  -2.91
iter:  26 05:01:38 -8898.858822c -4.81  -2.99
iter:  27 05:08:12 -8898.846902c -5.35  -2.99
iter:  28 05:14:53 -8898.848325c -5.53  -3.13
iter:  29 05:22:03 -8898.842097c -5.25  -3.23
iter:  30 05:28:35 -8898.844827c -5.32  -3.24
iter:  31 05:35:14 -8898.837543c -4.80  -3.32
iter:  32 05:41:40 -8898.836781c -5.93  -3.74
iter:  33 05:48:05 -8898.837279c -6.80  -3.92
iter:  34 05:54:31 -8898.837258c -6.90  -4.06c
iter:  35 06:00:58 -8898.837637c -7.15  -4.14c
iter:  36 06:07:26 -8898.837544c -6.83  -4.16c
iter:  37 06:13:53 -8898.837342c -7.69c -4.42c

Converged after 37 iterations.

Dipole moment: (31.926014, 24.574498, 0.249151) |e|*Ang

Energy contributions relative to reference atoms: (reference = -5113415.786755)

Kinetic:       +1077.086088
Potential:     -1111.169638
External:        +0.000000
XC:            -8862.485770
Entropy (-ST):   -1.327985
Local:           -1.604031
--------------------------
Free energy:   -8899.501335
Extrapolated:  -8898.837342

Showing only first 2 kpts
 Kpt  Band  Eigenvalues  Occupancy
  0   662      0.56245    1.00488
  0   663      0.57278    0.95328
  0   664      0.58349    0.90002
  0   665      0.64871    0.59766

  1   662      0.40147    1.66947
  1   663      0.44055    1.54720
  1   664      0.48834    1.35872
  1   665      0.56718    0.98121


Fermi level: 0.56342

No gap

Forces in eV/Ang:
  0 Cu   -0.09657    0.09062   -0.33242
  1 Cu   -0.13419    0.05274   -0.33181
  2 Cu   -0.02991   -0.00773   -0.20301
  3 Cu    0.01182    0.00612   -0.12898
  4 Cu    0.02652    0.08737   -0.15909
  5 Cu   -0.05490   -0.05397   -0.16209
  6 Cu   -0.00016   -0.05435   -0.17936
  7 Cu    0.08517   -0.05684   -0.04659
  8 Cu   -0.00084    0.00047    0.05456
  9 Cu   -0.00908    0.00628    0.00188
 10 Cu   -0.01272   -0.00180   -0.07837
 11 Cu    0.01290   -0.00954    0.03384
 12 Cu    0.01623    0.02030   -0.00433
 13 Cu   -0.03697   -0.01303    0.01062
 14 Cu   -0.00252    0.00353    0.01985
 15 Cu    0.01527    0.00858    0.02698
 16 Cu    0.01904    0.09139    0.21618
 17 Cu    0.04302   -0.03824    0.16561
 18 Cu   -0.01543   -0.02769   -0.09641
 19 Cu    0.07337   -0.03127    0.02975
 20 Cu    0.18324   -0.18433   -0.44782
 21 Cu    0.22059    0.16901   -0.29805
 22 Cu   -0.52668    0.06867   -0.52356
 23 Cu   -0.30763   -0.07002   -0.11739
 24 Cu   -0.06317    0.02618    0.08152
 25 Cu   -0.09364    0.03534   -0.30583
 26 Cu    0.04442   -0.04255   -0.06590
 27 Cu    0.05397    0.04142   -0.14788
 28 Cu    0.00438   -0.00487    0.02710
 29 Cu    0.01075    0.00378    0.01591
 30 Cu    0.00370    0.00910   -0.00466
 31 Cu   -0.01369   -0.01219   -0.06008
 32 Cu   -0.05812   -0.05903   -0.05154
 33 Cu    0.00690    0.02013    0.11991
 34 Cu   -0.17325    0.08716   -0.13788
 35 Cu    0.22482    0.18600   -0.05591
 36 Cu   -0.10924    0.04434    1.45708
 37 Cu   -0.08870    0.06005   -0.17457
 38 Cu   -0.02377    0.00522   -0.00139
 39 Cu   -0.06636    0.02503   -0.05775
 40 Cu    0.00782   -0.01436   -0.00712
 41 Cu    0.00362    0.00128    0.01699
 42 Cu   -0.00041   -0.00764   -0.01425
 43 Cu    0.01794   -0.00513   -0.04874
 44 Cu   -0.00777    0.04050    0.01297
 45 Cu   -0.02998    0.00967    0.10399
 46 Cu   -0.14496   -0.14373   -0.04062
 47 Cu   -0.01622   -0.27919   -0.81685
 48 Cu   -0.06627   -0.00833   -0.30769
 49 Cu   -0.01859    0.02299   -0.09787
 50 Cu    0.00235    0.00365   -0.01620
 51 Cu   -0.00546    0.00832    0.00119
 52 Cu    0.01254   -0.00576    0.03074
 53 Cu   -0.15867    0.19190   -0.45788
 54 Cu    0.63679   -0.00921    2.89928
 55 Cu    0.10880    0.18331    0.02866
 56 Cu   -0.28065    0.09959    0.30233
 57 Cu   -0.02308    0.16127   -0.04486
 58 Cu   -0.04577   -0.02304   -0.05314
 59 Cu   -0.00355    0.05863   -0.10165
 60 Cu    0.04399   -0.03403   -0.03517
 61 Cu    0.07443    0.02469   -0.17814
 62 Cu   -0.01727   -0.00387    0.03392
 63 Cu    0.01832    0.01350    0.00270
 64 Cu    0.01772   -0.01131   -0.01260
 65 Cu   -0.00918   -0.00937   -0.02221
 66 Cu    0.00073    0.00353    0.00628
 67 Cu    0.00180   -0.00393    0.01218
 68 Cu   -0.00953   -0.00295   -0.00773
 69 Cu   -0.00858   -0.00053   -0.03082
 70 Cu    0.01234    0.01808    0.05091
 71 Cu   -0.03425   -0.01446   -0.03655
 72 Cu    0.03701    0.03056    0.03933
 73 Cu    0.02110   -0.00922    0.09141
 74 Cu    0.17432   -0.04393   -0.07180
 75 Cu   -0.01149   -0.26275    0.03216
 76 Cu    0.64801   -0.09848   -1.31423
 77 Cu   -0.23354    0.29167   -0.75387
 78 Cu   -0.05252   -0.22403    0.24505
 79 Cu    0.03049   -0.04518   -0.31198
 80 Cu   -0.03743    0.02159   -0.13528
 81 Cu   -0.03705   -0.00848   -0.17839
 82 Cu   -0.02469    0.00373   -0.01803
 83 Cu    0.01022    0.00994    0.00342
 84 Cu   -0.01668    0.00755   -0.02664
 85 Cu   -0.00528    0.01726   -0.01021
 86 Cu    0.01371   -0.02867    0.06253
 87 Cu   -0.05587   -0.01233    0.01586
 88 Cu    0.64947   -0.06794   -1.49104
 89 Cu    0.45536    0.02635   -1.17189
 90 Cu    0.11567   -0.11757   -0.24918
 91 Cu    0.07475   -0.14707    0.21408
 92 Cu    0.00024   -0.04557   -0.03443
 93 Cu   -0.01545    0.08641   -0.08855
 94 Cu    0.01482   -0.00148    0.02724
 95 Cu   -0.00414   -0.00921   -0.02657
 96 Cu   -0.01638   -0.00492   -0.04390
 97 Cu   -0.00241   -0.00509   -0.02092
 98 Cu   -0.04756   -0.04730    0.10023
 99 Cu   -0.10675    0.01398    0.03115
100 Cu    0.08838   -0.01324   -0.00059
101 Cu    0.32414   -0.46863   -0.46640
102 Cu    0.07211   -0.19425    0.02672
103 Cu   -0.02209   -0.01361   -0.04212
104 Cu    0.00486   -0.00056   -0.03437
105 Cu    0.02335    0.00759    0.01523
106 Cu    0.06954    0.08486    0.09272
107 Cu   -1.04236   -0.59955   -2.45890
108 Cl   -1.44482   -0.29172    0.82814
109 Cl    1.38669   -1.71123    0.22469
110 Cl   -0.26771    1.26927    0.30788
111 Cl   -0.30787    0.59594    1.34204
112 Cl    0.04004    0.91110    1.61068
113 Cl   -0.72469    0.97734    1.29617
114 Cl    1.17454   -1.16388    0.63885
115 Cl    1.11959   -2.50756    0.81600
116 Cl    0.01560    2.17145    2.28194
117 Cl   -1.31630    0.92226    0.84817
118 Cl    1.55927   -0.05504    0.18912
119 Cl   -0.82923   -0.46074    0.58240
120 Cl   -7.00827   -9.26522   -2.11295
121 Cl    8.49278    8.71098   -2.16964
122 Cl   -1.06244    0.61155    0.35584
123 Cl   -0.09269    0.57072    0.61955
124 Cl   -0.20835    0.12828    0.27699
125 Cl   -0.08010   -0.18734    1.07300
126 Cl   -2.28393    1.48496    0.84115
127 Cl    1.50617   -1.58188   -1.24102

System changes: positions 

Initializing position-dependent things.

Density initialized from wave functions
                                                                  
                                                                  
                                                                  
                                                                  
                                                                  
                       Cl        Cl               Cl              
                        CCl    CCl   Cu  Cl Cu    Cu     Cu       
                  Cl                                              
                    Cu    CCl    CCl   Cu    Clu    Cu            
               Cu    CCu   CCu    CCu   CCu   CCu    Cu           
                                                                  
                Cu    Cu     Cu    Cu     Cu    Cu                
           Cu    CCu   CCu    CCu   CCu    CCu   Cu               
                                                                  
            Cu     Cu   CCu    CCu   CCu    CCu   Cu     Cu       
        Cu    Cu     Cu    Cu     Cu    Cu                        
                    Cu    Cu     Cu    Cu     Cu    Cu            
               Cu    CCu   CCu    Cu    CCu   CCu    Cu           
                                                                  
                Cu    Cu     Cu    Cu     Cu    Cu                
           Cu    CCu   CCu    CCu   CCu    CCu   Cu               
                                                                  
            Cu   ClCu    Cu     Cu Cl Cu    CCu                   
        Cu    Cu     Cu  ClCu   ClCu   CCu                        
                                              Cl                  
                 Cl         Cl    Cl                              
                                                                  
                                                                  
                                                                  
                                                                  
                                                                  

Positions:
   0 Cu     2.892381    0.001465    9.998015    ( 0.0000,  0.0000,  0.0000)
   1 Cu     4.200273    2.267242    9.998026    ( 0.0000,  0.0000,  0.0000)
   2 Cu     0.276458   -0.000127   10.000110    ( 0.0000,  0.0000,  0.0000)
   3 Cu     1.585634    2.266487   10.001308    ( 0.0000,  0.0000,  0.0000)
   4 Cu     2.894622    3.023408   12.131260    ( 0.0000,  0.0000,  0.0000)
   5 Cu     1.584804    0.754730   12.131212    ( 0.0000,  0.0000,  0.0000)
   6 Cu     5.511192    3.021114   12.130932    ( 0.0000,  0.0000,  0.0000)
   7 Cu     4.204072    0.754684   12.133081    ( 0.0000,  0.0000,  0.0000)
   8 Cu     5.511293    1.511139   14.272829    ( 0.0000,  0.0000,  0.0000)
   9 Cu     6.819661    3.777623   14.271976    ( 0.0000,  0.0000,  0.0000)
  10 Cu     2.894098    1.511102   14.270678    ( 0.0000,  0.0000,  0.0000)
  11 Cu     4.203015    3.777367   14.272494    ( 0.0000,  0.0000,  0.0000)
  12 Cu     2.893875    0.000133   16.411637    ( 0.0000,  0.0000,  0.0000)
  13 Cu     4.201515    2.265984   16.411879    ( 0.0000,  0.0000,  0.0000)
  14 Cu     0.276569   -0.000139   16.412028    ( 0.0000,  0.0000,  0.0000)
  15 Cu     1.585358    2.266334   16.412144    ( 0.0000,  0.0000,  0.0000)
  16 Cu     2.894012    3.023191   18.553370    ( 0.0000,  0.0000,  0.0000)
  17 Cu     1.585899    0.754703   18.552551    ( 0.0000,  0.0000,  0.0000)
  18 Cu     5.510456    3.021264   18.548311    ( 0.0000,  0.0000,  0.0000)
  19 Cu     4.203392    0.754816   18.550352    ( 0.0000,  0.0000,  0.0000)
  20 Cu     5.513919    1.507945   20.673048    ( 0.0000,  0.0000,  0.0000)
  21 Cu     6.823024    3.780054   20.675472    ( 0.0000,  0.0000,  0.0000)
  22 Cu     2.885427    1.512039   20.671823    ( 0.0000,  0.0000,  0.0000)
  23 Cu     4.197473    3.776186   20.678396    ( 0.0000,  0.0000,  0.0000)
  24 Cu     5.509924    4.533202   10.004714    ( 0.0000,  0.0000,  0.0000)
  25 Cu     2.892428    4.533350    9.998446    ( 0.0000,  0.0000,  0.0000)
  26 Cu     4.203413    5.287696   12.132769    ( 0.0000,  0.0000,  0.0000)
  27 Cu     6.820569    5.289055   12.131442    ( 0.0000,  0.0000,  0.0000)
  28 Cu     8.128380    6.043833   14.272385    ( 0.0000,  0.0000,  0.0000)
  29 Cu     5.511481    6.043973   14.272204    ( 0.0000,  0.0000,  0.0000)
  30 Cu     5.510674    4.532732   16.411632    ( 0.0000,  0.0000,  0.0000)
  31 Cu     2.893390    4.532388   16.410735    ( 0.0000,  0.0000,  0.0000)
  32 Cu     4.201264    5.287148   18.549037    ( 0.0000,  0.0000,  0.0000)
  33 Cu     6.819319    5.288429   18.551812    ( 0.0000,  0.0000,  0.0000)
  34 Cu     8.125151    6.045120   20.678064    ( 0.0000,  0.0000,  0.0000)
  35 Cu     5.514591    6.046719   20.679391    ( 0.0000,  0.0000,  0.0000)
  36 Cu     5.509178    0.000716   10.026977    ( 0.0000,  0.0000,  0.0000)
  37 Cu     6.818012    2.267360   10.000571    ( 0.0000,  0.0000,  0.0000)
  38 Cu     8.127812    3.022078   12.133812    ( 0.0000,  0.0000,  0.0000)
  39 Cu     6.818622    0.756009   12.132900    ( 0.0000,  0.0000,  0.0000)
  40 Cu     8.128436    1.510899   14.271831    ( 0.0000,  0.0000,  0.0000)
  41 Cu     9.436869    3.777542   14.272221    ( 0.0000,  0.0000,  0.0000)
  42 Cu     5.510607   -0.000320   16.411475    ( 0.0000,  0.0000,  0.0000)
  43 Cu     6.819405    2.266112   16.410918    ( 0.0000,  0.0000,  0.0000)
  44 Cu     8.127583    3.022367   18.550081    ( 0.0000,  0.0000,  0.0000)
  45 Cu     6.818722    0.755479   18.551554    ( 0.0000,  0.0000,  0.0000)
  46 Cu     8.125609    1.508602   20.679639    ( 0.0000,  0.0000,  0.0000)
  47 Cu     9.436193    3.772801   20.667076    ( 0.0000,  0.0000,  0.0000)
  48 Cu     8.126876    4.532643    9.998415    ( 0.0000,  0.0000,  0.0000)
  49 Cu     9.436397    5.288757   12.132251    ( 0.0000,  0.0000,  0.0000)
  50 Cu    10.745349    6.043971   14.271684    ( 0.0000,  0.0000,  0.0000)
  51 Cu     8.127528    4.532720   16.411726    ( 0.0000,  0.0000,  0.0000)
  52 Cu     9.436413    5.288010   18.550369    ( 0.0000,  0.0000,  0.0000)
  53 Cu    10.742389    6.046815   20.672886    ( 0.0000,  0.0000,  0.0000)
  54 Cu    10.755257   -0.000151   10.050317    ( 0.0000,  0.0000,  0.0000)
  55 Cu    12.055213    2.269355   10.003860    ( 0.0000,  0.0000,  0.0000)
  56 Cu     8.123407    0.001610   10.008289    ( 0.0000,  0.0000,  0.0000)
  57 Cu     9.436076    2.268998   10.002669    ( 0.0000,  0.0000,  0.0000)
  58 Cu    10.744459    3.021621   12.132975    ( 0.0000,  0.0000,  0.0000)
  59 Cu     9.436642    0.756553   12.132190    ( 0.0000,  0.0000,  0.0000)
  60 Cu    13.362914    3.021443   12.133266    ( 0.0000,  0.0000,  0.0000)
  61 Cu    12.054906    0.756004   12.130952    ( 0.0000,  0.0000,  0.0000)
  62 Cu    13.362034    1.511068   14.272495    ( 0.0000,  0.0000,  0.0000)
  63 Cu    14.671112    3.777740   14.271990    ( 0.0000,  0.0000,  0.0000)
  64 Cu    10.745598    1.510948   14.271742    ( 0.0000,  0.0000,  0.0000)
  65 Cu    12.053664    3.777369   14.271586    ( 0.0000,  0.0000,  0.0000)
  66 Cu    10.744631   -0.000139   16.411809    ( 0.0000,  0.0000,  0.0000)
  67 Cu    12.053149    2.266131   16.411904    ( 0.0000,  0.0000,  0.0000)
  68 Cu     8.127463   -0.000244   16.411582    ( 0.0000,  0.0000,  0.0000)
  69 Cu     9.435979    2.266186   16.411208    ( 0.0000,  0.0000,  0.0000)
  70 Cu    10.744911    3.022005   18.550695    ( 0.0000,  0.0000,  0.0000)
  71 Cu     9.435656    0.755088   18.549280    ( 0.0000,  0.0000,  0.0000)
  72 Cu    13.362312    3.022207   18.550508    ( 0.0000,  0.0000,  0.0000)
  73 Cu    12.053553    0.755173   18.551350    ( 0.0000,  0.0000,  0.0000)
  74 Cu    13.364781    1.510217   20.679134    ( 0.0000,  0.0000,  0.0000)
  75 Cu    14.670275    3.773067   20.680816    ( 0.0000,  0.0000,  0.0000)
  76 Cu    10.755445    1.509334   20.659026    ( 0.0000,  0.0000,  0.0000)
  77 Cu    12.049679    3.782039   20.668095    ( 0.0000,  0.0000,  0.0000)
  78 Cu    13.361103    4.529152   10.007361    ( 0.0000,  0.0000,  0.0000)
  79 Cu    10.745444    4.532047    9.998347    ( 0.0000,  0.0000,  0.0000)
  80 Cu    12.053095    5.288734   12.131646    ( 0.0000,  0.0000,  0.0000)
  81 Cu    14.670103    5.288248   12.130948    ( 0.0000,  0.0000,  0.0000)
  82 Cu    15.978916    6.043972   14.271654    ( 0.0000,  0.0000,  0.0000)
  83 Cu    13.362479    6.044073   14.272001    ( 0.0000,  0.0000,  0.0000)
  84 Cu    13.361351    4.532707   16.411276    ( 0.0000,  0.0000,  0.0000)
  85 Cu    10.744533    4.532864   16.411542    ( 0.0000,  0.0000,  0.0000)
  86 Cu    12.053434    5.287639   18.550883    ( 0.0000,  0.0000,  0.0000)
  87 Cu    14.669310    5.287903   18.550128    ( 0.0000,  0.0000,  0.0000)
  88 Cu    15.989473    6.042609   20.656165    ( 0.0000,  0.0000,  0.0000)
  89 Cu    13.369330    6.044135   20.661330    ( 0.0000,  0.0000,  0.0000)
  90 Cu    13.363825   -0.001905    9.999363    ( 0.0000,  0.0000,  0.0000)
  91 Cu    14.671665    2.264008   10.006861    ( 0.0000,  0.0000,  0.0000)
  92 Cu    15.979208    3.021256   12.133278    ( 0.0000,  0.0000,  0.0000)
  93 Cu    14.670453    0.757002   12.132402    ( 0.0000,  0.0000,  0.0000)
  94 Cu    15.979556    1.511107   14.272387    ( 0.0000,  0.0000,  0.0000)
  95 Cu    17.287750    3.777372   14.271516    ( 0.0000,  0.0000,  0.0000)
  96 Cu    13.361356   -0.000276   16.410995    ( 0.0000,  0.0000,  0.0000)
  97 Cu    14.670083    2.266113   16.411368    ( 0.0000,  0.0000,  0.0000)
  98 Cu    15.977946    3.020946   18.551493    ( 0.0000,  0.0000,  0.0000)
  99 Cu    14.668486    0.755548   18.550375    ( 0.0000,  0.0000,  0.0000)
 100 Cu    15.980392    1.510714   20.680286    ( 0.0000,  0.0000,  0.0000)
 101 Cu    17.292709    3.769735   20.672748    ( 0.0000,  0.0000,  0.0000)
 102 Cu    15.980123    4.529634   10.003827    ( 0.0000,  0.0000,  0.0000)
 103 Cu    17.287347    5.288165   12.133153    ( 0.0000,  0.0000,  0.0000)
 104 Cu    18.596397    6.043903   14.271390    ( 0.0000,  0.0000,  0.0000)
 105 Cu    15.979001    4.532708   16.411954    ( 0.0000,  0.0000,  0.0000)
 106 Cu    17.288342    5.289476   18.551372    ( 0.0000,  0.0000,  0.0000)
 107 Cu    18.579094    6.034006   20.640501    ( 0.0000,  0.0000,  0.0000)
 108 Cl     4.078730    1.361474   22.525110    ( 0.0000,  0.0000,  0.0000)
 109 Cl     6.841557    2.238500   22.515343    ( 0.0000,  0.0000,  0.0000)
 110 Cl     5.506281    4.553127   22.516690    ( 0.0000,  0.0000,  0.0000)
 111 Cl     8.231227   -1.035033   22.471591    ( 0.0000,  0.0000,  0.0000)
 112 Cl    11.053860   -0.029933   22.475938    ( 0.0000,  0.0000,  0.0000)
 113 Cl     9.732983    2.237529   22.470848    ( 0.0000,  0.0000,  0.0000)
 114 Cl    12.980630    2.913749   22.522046    ( 0.0000,  0.0000,  0.0000)
 115 Cl    16.396743    4.592002   22.524913    ( 0.0000,  0.0000,  0.0000)
 116 Cl    15.370374   -0.198662   22.548638    ( 0.0000,  0.0000,  0.0000)
 117 Cl     9.323408    5.136638   22.463598    ( 0.0000,  0.0000,  0.0000)
 118 Cl    14.939025    2.801873    7.868483    ( 0.0000,  0.0000,  0.0000)
 119 Cl    12.183367    3.695307    7.874848    ( 0.0000,  0.0000,  0.0000)
 120 Cl    13.391866    5.819205    7.831226    ( 0.0000,  0.0000,  0.0000)
 121 Cl    10.917140    0.532870    7.892145    ( 0.0000,  0.0000,  0.0000)
 122 Cl     7.945496    1.401788    7.933018    ( 0.0000,  0.0000,  0.0000)
 123 Cl     9.269692    3.667517    7.937286    ( 0.0000,  0.0000,  0.0000)
 124 Cl     6.050910    4.371230    7.869905    ( 0.0000,  0.0000,  0.0000)
 125 Cl     2.635983    6.066122    7.882788    ( 0.0000,  0.0000,  0.0000)
 126 Cl     3.608817    1.226797    7.879036    ( 0.0000,  0.0000,  0.0000)
 127 Cl     9.695568    6.532680    7.907174    ( 0.0000,  0.0000,  0.0000)

Unit cell:
           periodic     x           y           z      points  spacing
  1. axis:    yes   15.702014    0.000000    0.000000    90     0.1511
  2. axis:    yes    3.925503    6.799171    0.000000    45     0.1511
  3. axis:    yes    0.000000    0.000000   30.683867   175     0.1753

  Lengths:  15.702014   7.851006  30.683867
  Angles:   90.000000  90.000000  60.000001

Effective grid spacing dv^(1/3) = 0.1666

     iter     time        total  log10-change:
                         energy  eigst   dens
iter:   1 06:24:20 -8918.028284  -1.35
iter:   2 06:30:43 -8918.625329  -1.88  -1.98
iter:   3 06:37:06 -8908.042846  -2.32  -1.76
iter:   4 06:43:33 -8903.910765  -2.88  -2.13
iter:   5 06:50:00 -8903.255048  -2.55  -2.37
iter:   6 06:56:24 -8903.554618c -3.26  -2.47
iter:   7 07:02:48 -8902.539227  -3.21  -2.34
iter:   8 07:09:15 -8902.581412  -4.08  -2.62
iter:   9 07:15:43 -8902.350785c -3.96  -2.61
iter:  10 07:22:12 -8902.297407c -4.04  -2.91
iter:  11 07:28:43 -8902.385819c -3.87  -3.04
iter:  12 07:35:13 -8902.292907c -4.32  -2.74
iter:  13 07:41:44 -8902.348126c -4.55  -3.09
iter:  14 07:48:15 -8902.269647c -4.67  -2.93
iter:  15 07:54:45 -8902.268544c -5.53  -3.39
iter:  16 08:01:14 -8902.263615c -5.54  -3.43
iter:  17 08:07:45 -8902.265586c -5.10  -3.56
iter:  18 08:14:16 -8902.261769c -6.30  -3.28
iter:  19 08:20:47 -8902.260332c -6.13  -3.41
iter:  20 08:27:19 -8902.261844c -6.05  -3.62
iter:  21 08:33:51 -8902.260640c -6.57  -3.87
iter:  22 08:40:22 -8902.262572c -6.26  -3.86
iter:  23 08:46:52 -8902.261258c -7.29  -4.18c
iter:  24 08:53:22 -8902.261318c -7.11  -4.28c
iter:  25 08:59:50 -8902.261460c -7.47c -4.47c

Converged after 25 iterations.

Dipole moment: (33.487857, 24.838253, 0.228559) |e|*Ang

Energy contributions relative to reference atoms: (reference = -5113415.786755)

Kinetic:       +1038.674474
Potential:     -1082.709208
External:        +0.000000
XC:            -8856.079082
Entropy (-ST):   -1.320578
Local:           -1.487354
--------------------------
Free energy:   -8902.921749
Extrapolated:  -8902.261460

Showing only first 2 kpts
 Kpt  Band  Eigenvalues  Occupancy
  0   662      0.50397    1.00736
  0   663      0.51512    0.95168
  0   664      0.52609    0.89713
  0   665      0.59109    0.59616

  1   662      0.35118    1.64771
  1   663      0.38883    1.52488
  1   664      0.43088    1.35648
  1   665      0.51166    0.96893


Fermi level: 0.50545

No gap

Forces in eV/Ang:
  0 Cu   -0.07874    0.08647   -0.34505
  1 Cu   -0.12093    0.04762   -0.33080
  2 Cu   -0.02598   -0.01264   -0.19842
  3 Cu    0.01541   -0.00020   -0.14663
  4 Cu    0.02667    0.08027   -0.15427
  5 Cu   -0.05124   -0.05092   -0.15835
  6 Cu   -0.00581   -0.05337   -0.17340
  7 Cu    0.05531   -0.03792   -0.02757
  8 Cu   -0.00038    0.00188    0.04674
  9 Cu   -0.01076    0.00668   -0.00531
 10 Cu   -0.01241   -0.00057   -0.08151
 11 Cu    0.01104   -0.00949    0.02512
 12 Cu    0.01221    0.01995    0.00337
 13 Cu   -0.03764   -0.01033    0.01160
 14 Cu   -0.00291    0.00398    0.01730
 15 Cu    0.01551    0.00782    0.03071
 16 Cu    0.02179    0.08038    0.16915
 17 Cu    0.02454   -0.03710    0.13846
 18 Cu   -0.01605   -0.02138   -0.08827
 19 Cu    0.06672   -0.02849    0.01882
 20 Cu    0.09114   -0.13017   -0.26577
 21 Cu    0.14722    0.12267   -0.15418
 22 Cu   -0.39976    0.04932   -0.41452
 23 Cu   -0.22296   -0.04988   -0.03785
 24 Cu   -0.06779    0.02932    0.10221
 25 Cu   -0.08937    0.03649   -0.29403
 26 Cu    0.03959   -0.03825   -0.06255
 27 Cu    0.05457    0.04166   -0.14867
 28 Cu    0.00247   -0.00454    0.02426
 29 Cu    0.01102    0.00306    0.00851
 30 Cu    0.00322    0.00931   -0.00252
 31 Cu   -0.01251   -0.01281   -0.05169
 32 Cu   -0.02145   -0.06076   -0.07018
 33 Cu    0.00511    0.01975    0.09473
 34 Cu   -0.14152    0.08149   -0.08759
 35 Cu    0.12924    0.16012   -0.00161
 36 Cu   -0.08382    0.00998    0.84190
 37 Cu   -0.08567    0.04005   -0.19600
 38 Cu   -0.02326    0.00566   -0.00648
 39 Cu   -0.04045    0.03577   -0.02901
 40 Cu    0.00563   -0.01268   -0.00518
 41 Cu    0.00555    0.00211    0.01040
 42 Cu    0.00045   -0.00640   -0.01169
 43 Cu    0.01588   -0.00546   -0.04047
 44 Cu   -0.01273    0.02703   -0.00757
 45 Cu   -0.01921    0.00962    0.06861
 46 Cu   -0.06301   -0.14528   -0.02701
 47 Cu    0.00570   -0.18495   -0.54372
 48 Cu   -0.08104    0.01780   -0.27298
 49 Cu   -0.02279   -0.00069   -0.06871
 50 Cu    0.00433    0.00019   -0.02003
 51 Cu   -0.00527    0.00847    0.00193
 52 Cu    0.00857   -0.00212    0.01689
 53 Cu   -0.09636    0.11505   -0.28195
 54 Cu    0.29824   -0.00470    1.10324
 55 Cu    0.08295    0.04461    0.08745
 56 Cu   -0.13764    0.08731    0.13374
 57 Cu   -0.01222    0.08748   -0.09543
 58 Cu   -0.04461   -0.01724   -0.05593
 59 Cu   -0.02594    0.06751   -0.03946
 60 Cu    0.03923   -0.01836   -0.03779
 61 Cu    0.10232    0.02326   -0.10486
 62 Cu   -0.01863    0.00039    0.02118
 63 Cu    0.01735    0.01058    0.00267
 64 Cu    0.02093   -0.00653   -0.01097
 65 Cu   -0.00825   -0.00847   -0.02669
 66 Cu    0.00142    0.00424    0.00518
 67 Cu    0.00194   -0.00051    0.01755
 68 Cu   -0.01075   -0.00179   -0.00284
 69 Cu   -0.00643    0.00057   -0.02774
 70 Cu    0.01080    0.01754    0.00406
 71 Cu   -0.04439    0.00062   -0.05946
 72 Cu    0.03604    0.02769    0.03108
 73 Cu    0.03349    0.00029    0.03006
 74 Cu    0.16456   -0.04594   -0.01471
 75 Cu   -0.00079   -0.21040    0.09695
 76 Cu    0.41233   -0.02088   -0.79750
 77 Cu   -0.11892    0.21894   -0.45218
 78 Cu    0.06199   -0.07989    0.29352
 79 Cu   -0.06122   -0.00969   -0.16363
 80 Cu   -0.03570    0.01617   -0.13177
 81 Cu   -0.02519   -0.03352   -0.09683
 82 Cu   -0.01888    0.00231   -0.01198
 83 Cu    0.00515    0.00497    0.00179
 84 Cu   -0.01722    0.00348   -0.02573
 85 Cu   -0.00399    0.01320   -0.00619
 86 Cu    0.00487   -0.01973    0.02767
 87 Cu   -0.04831   -0.03070   -0.01820
 88 Cu    0.38861   -0.03758   -0.87649
 89 Cu    0.29866   -0.00494   -0.74492
 90 Cu    0.09102   -0.09236   -0.25451
 91 Cu    0.07378   -0.13750    0.17583
 92 Cu    0.01072   -0.03972   -0.03390
 93 Cu   -0.01385    0.06825   -0.07622
 94 Cu    0.01453   -0.00050    0.02303
 95 Cu   -0.00319   -0.00748   -0.02596
 96 Cu   -0.01319   -0.00416   -0.04077
 97 Cu   -0.00293   -0.00431   -0.01508
 98 Cu   -0.04560   -0.04659    0.08137
 99 Cu   -0.08637    0.03941    0.00049
100 Cu    0.04021   -0.09061    0.06971
101 Cu    0.26465   -0.41144   -0.39969
102 Cu    0.05601   -0.18159   -0.01269
103 Cu   -0.02587   -0.00880   -0.05507
104 Cu    0.00320   -0.00286   -0.04021
105 Cu    0.02199    0.00533    0.01963
106 Cu    0.04323    0.04448   -0.00925
107 Cu   -0.50185   -0.26958   -1.19960
108 Cl   -1.31904   -0.19317    0.60070
109 Cl    0.93788   -1.42809    0.11992
110 Cl   -0.11921    0.94157    0.12771
111 Cl   -0.18298    0.51827    0.86549
112 Cl    0.36462    0.54219    1.05477
113 Cl   -0.36762    0.84337    0.81673
114 Cl    1.03232   -0.95462    0.34507
115 Cl    0.90635   -2.11963    0.57741
116 Cl   -0.38532    1.88270    1.02300
117 Cl   -1.23699    0.79674    0.56619
118 Cl    1.44121   -0.07315    0.26862
119 Cl   -0.65328   -0.04524    0.07105
120 Cl   -0.03132   -2.20322   -1.06697
121 Cl    1.42501    1.41086   -1.05145
122 Cl   -0.95870    0.57391    0.45068
123 Cl   -0.18217    0.50639    0.57150
124 Cl   -0.19906    0.14668    0.27264
125 Cl   -0.01497   -0.21207    1.08403
126 Cl   -2.03320    1.32198    0.97471
127 Cl    1.36074   -1.42161   -0.72884

System changes: positions 

Initializing position-dependent things.

Density initialized from wave functions
                                                                  
                                                                  
                                                                  
                                                                  
                                                                  
                       Cl        Cl               Cl              
                        CCl    CCl   Cu  Cl Cu    Cu    Cu        
                  Cl                                              
                    Cu    CCl    CCl   Cu    Clu    Cu            
               Cu    CCu   CCu    CCu   CCu   CCu    Cu           
                                                                  
                Cu     Cu    Cu    Cu     Cu    Cu                
           Cu    CCu   CCu    CCu   CCu    CCu   Cu               
                                                                  
            Cu     Cu   CCu    CCu   CCu    CCu   Cu     Cu       
        Cu    Cu    CCu   CCu    CCu   CCu    Cu    Cu            
                                                                  
               Cu    CCu   CCu    Cu    CCu   CCu    Cu           
                                                                  
                Cu     Cu    Cu    Cu     Cu    Cu                
           Cu    CCu   CCu    CCu   CCu    CCu   Cu               
                                                                  
            Cu   ClCu    Cu     Cu Cl Cu    CCu                   
        Cu    Cu     Cu  ClCu   ClCu   CCu                        
                                              Cl                  
                Cl         Cl     Cl                              
                                                                  
                                                                  
                                                                  
                                                                  
                                                                  

Positions:
   0 Cu     2.886509    0.008127    9.971026    ( 0.0000,  0.0000,  0.0000)
   1 Cu     4.191058    2.270872    9.972332    ( 0.0000,  0.0000,  0.0000)
   2 Cu     0.274494   -0.001177    9.984755    ( 0.0000,  0.0000,  0.0000)
   3 Cu     1.586882    2.266384    9.989669    ( 0.0000,  0.0000,  0.0000)
   4 Cu     2.896697    3.029548   12.119338    ( 0.0000,  0.0000,  0.0000)
   5 Cu     1.580873    0.750816   12.118958    ( 0.0000,  0.0000,  0.0000)
   6 Cu     5.510663    3.016981   12.117539    ( 0.0000,  0.0000,  0.0000)
   7 Cu     4.207958    0.751999   12.131201    ( 0.0000,  0.0000,  0.0000)
   8 Cu     5.511270    1.511304   14.276353    ( 0.0000,  0.0000,  0.0000)
   9 Cu     6.818802    3.778148   14.271464    ( 0.0000,  0.0000,  0.0000)
  10 Cu     2.893138    1.511074   14.264300    ( 0.0000,  0.0000,  0.0000)
  11 Cu     4.203847    3.776629   14.274326    ( 0.0000,  0.0000,  0.0000)
  12 Cu     2.894768    0.001679   16.412005    ( 0.0000,  0.0000,  0.0000)
  13 Cu     4.198580    2.265219   16.412794    ( 0.0000,  0.0000,  0.0000)
  14 Cu     0.276338    0.000177   16.413338    ( 0.0000,  0.0000,  0.0000)
  15 Cu     1.586567    2.266931   16.414582    ( 0.0000,  0.0000,  0.0000)
  16 Cu     2.895744    3.029285   18.565865    ( 0.0000,  0.0000,  0.0000)
  17 Cu     1.587551    0.751836   18.562936    ( 0.0000,  0.0000,  0.0000)
  18 Cu     5.509200    3.019690   18.541563    ( 0.0000,  0.0000,  0.0000)
  19 Cu     4.208485    0.752641   18.551664    ( 0.0000,  0.0000,  0.0000)
  20 Cu     5.519730    1.498577   20.654909    ( 0.0000,  0.0000,  0.0000)
  21 Cu     6.833452    3.788947   20.665478    ( 0.0000,  0.0000,  0.0000)
  22 Cu     2.856114    1.515605   20.641116    ( 0.0000,  0.0000,  0.0000)
  23 Cu     4.181316    3.772587   20.676553    ( 0.0000,  0.0000,  0.0000)
  24 Cu     5.504591    4.535524   10.012943    ( 0.0000,  0.0000,  0.0000)
  25 Cu     2.885542    4.536201    9.975760    ( 0.0000,  0.0000,  0.0000)
  26 Cu     4.206423    5.284783   12.127954    ( 0.0000,  0.0000,  0.0000)
  27 Cu     6.824819    5.292296   12.119877    ( 0.0000,  0.0000,  0.0000)
  28 Cu     8.128545    6.043485   14.274231    ( 0.0000,  0.0000,  0.0000)
  29 Cu     5.512341    6.044201   14.272762    ( 0.0000,  0.0000,  0.0000)
  30 Cu     5.510917    4.533459   16.411465    ( 0.0000,  0.0000,  0.0000)
  31 Cu     2.892435    4.531383   16.406834    ( 0.0000,  0.0000,  0.0000)
  32 Cu     4.200104    5.282402   18.543326    ( 0.0000,  0.0000,  0.0000)
  33 Cu     6.819691    5.289959   18.558826    ( 0.0000,  0.0000,  0.0000)
  34 Cu     8.114592    6.051374   20.671953    ( 0.0000,  0.0000,  0.0000)
  35 Cu     5.523315    6.058805   20.680016    ( 0.0000,  0.0000,  0.0000)
  36 Cu     5.503016    0.001016   10.083907    ( 0.0000,  0.0000,  0.0000)
  37 Cu     6.811396    2.270196    9.985043    ( 0.0000,  0.0000,  0.0000)
  38 Cu     8.126011    3.022524   12.133239    ( 0.0000,  0.0000,  0.0000)
  39 Cu     6.815836    0.758937   12.131043    ( 0.0000,  0.0000,  0.0000)
  40 Cu     8.128843    1.509936   14.271455    ( 0.0000,  0.0000,  0.0000)
  41 Cu     9.437326    3.777717   14.272938    ( 0.0000,  0.0000,  0.0000)
  42 Cu     5.510654   -0.000800   16.410602    ( 0.0000,  0.0000,  0.0000)
  43 Cu     6.820611    2.265684   16.407887    ( 0.0000,  0.0000,  0.0000)
  44 Cu     8.126526    3.024282   18.549209    ( 0.0000,  0.0000,  0.0000)
  45 Cu     6.817377    0.756226   18.556397    ( 0.0000,  0.0000,  0.0000)
  46 Cu     8.121844    1.497291   20.677728    ( 0.0000,  0.0000,  0.0000)
  47 Cu     9.436939    3.759730   20.628594    ( 0.0000,  0.0000,  0.0000)
  48 Cu     8.120374    4.534388    9.977681    ( 0.0000,  0.0000,  0.0000)
  49 Cu     9.434568    5.288376   12.127314    ( 0.0000,  0.0000,  0.0000)
  50 Cu    10.745713    6.043938   14.270074    ( 0.0000,  0.0000,  0.0000)
  51 Cu     8.127121    4.533380   16.411887    ( 0.0000,  0.0000,  0.0000)
  52 Cu     9.437024    5.287895   18.551489    ( 0.0000,  0.0000,  0.0000)
  53 Cu    10.735761    6.054694   20.653404    ( 0.0000,  0.0000,  0.0000)
  54 Cu    10.773758   -0.000454   10.111245    ( 0.0000,  0.0000,  0.0000)
  55 Cu    12.061302    2.270906   10.011467    ( 0.0000,  0.0000,  0.0000)
  56 Cu     8.114686    0.008225   10.016354    ( 0.0000,  0.0000,  0.0000)
  57 Cu     9.435277    2.274777    9.994554    ( 0.0000,  0.0000,  0.0000)
  58 Cu    10.741009    3.020361   12.128590    ( 0.0000,  0.0000,  0.0000)
  59 Cu     9.434317    0.761922   12.129983    ( 0.0000,  0.0000,  0.0000)
  60 Cu    13.365896    3.020233   12.130293    ( 0.0000,  0.0000,  0.0000)
  61 Cu    12.063243    0.757791   12.123816    ( 0.0000,  0.0000,  0.0000)
  62 Cu    13.360568    1.511158   14.273965    ( 0.0000,  0.0000,  0.0000)
  63 Cu    14.672447    3.778521   14.272197    ( 0.0000,  0.0000,  0.0000)
  64 Cu    10.747269    1.510506   14.270912    ( 0.0000,  0.0000,  0.0000)
  65 Cu    12.053036    3.776724   14.269451    ( 0.0000,  0.0000,  0.0000)
  66 Cu    10.744751    0.000200   16.412196    ( 0.0000,  0.0000,  0.0000)
  67 Cu    12.053302    2.266139   16.413342    ( 0.0000,  0.0000,  0.0000)
  68 Cu     8.126610   -0.000366   16.411429    ( 0.0000,  0.0000,  0.0000)
  69 Cu     9.435509    2.266246   16.409095    ( 0.0000,  0.0000,  0.0000)
  70 Cu    10.745729    3.023360   18.550364    ( 0.0000,  0.0000,  0.0000)
  71 Cu     9.432066    0.755344   18.544342    ( 0.0000,  0.0000,  0.0000)
  72 Cu    13.365099    3.024318   18.552809    ( 0.0000,  0.0000,  0.0000)
  73 Cu    12.056327    0.755327   18.552839    ( 0.0000,  0.0000,  0.0000)
  74 Cu    13.377435    1.506619   20.678780    ( 0.0000,  0.0000,  0.0000)
  75 Cu    14.670362    3.757439   20.689245    ( 0.0000,  0.0000,  0.0000)
  76 Cu    10.784233    1.508783   20.604188    ( 0.0000,  0.0000,  0.0000)
  77 Cu    12.042021    3.798049   20.637123    ( 0.0000,  0.0000,  0.0000)
  78 Cu    13.367502    4.524935   10.030840    ( 0.0000,  0.0000,  0.0000)
  79 Cu    10.739421    4.531784    9.987680    ( 0.0000,  0.0000,  0.0000)
  80 Cu    12.050345    5.289916   12.121454    ( 0.0000,  0.0000,  0.0000)
  81 Cu    14.668310    5.285297   12.124550    ( 0.0000,  0.0000,  0.0000)
  82 Cu    15.977529    6.044133   14.270807    ( 0.0000,  0.0000,  0.0000)
  83 Cu    13.362810    6.044391   14.272118    ( 0.0000,  0.0000,  0.0000)
  84 Cu    13.360005    4.532921   16.409289    ( 0.0000,  0.0000,  0.0000)
  85 Cu    10.744242    4.533834   16.411116    ( 0.0000,  0.0000,  0.0000)
  86 Cu    12.053690    5.286229   18.552552    ( 0.0000,  0.0000,  0.0000)
  87 Cu    14.665660    5.285264   18.548243    ( 0.0000,  0.0000,  0.0000)
  88 Cu    16.016070    6.040108   20.596540    ( 0.0000,  0.0000,  0.0000)
  89 Cu    13.390375    6.043319   20.609338    ( 0.0000,  0.0000,  0.0000)
  90 Cu    13.370558   -0.008734    9.979511    ( 0.0000,  0.0000,  0.0000)
  91 Cu    14.677385    2.253455   10.019997    ( 0.0000,  0.0000,  0.0000)
  92 Cu    15.980186    3.018251   12.130650    ( 0.0000,  0.0000,  0.0000)
  93 Cu    14.669399    0.762056   12.126649    ( 0.0000,  0.0000,  0.0000)
  94 Cu    15.980681    1.511082   14.274119    ( 0.0000,  0.0000,  0.0000)
  95 Cu    17.287515    3.776815   14.269507    ( 0.0000,  0.0000,  0.0000)
  96 Cu    13.360375   -0.000589   16.407871    ( 0.0000,  0.0000,  0.0000)
  97 Cu    14.669848    2.265788   16.410277    ( 0.0000,  0.0000,  0.0000)
  98 Cu    15.974430    3.017336   18.557556    ( 0.0000,  0.0000,  0.0000)
  99 Cu    14.662056    0.758962   18.549990    ( 0.0000,  0.0000,  0.0000)
 100 Cu    15.982852    1.502603   20.686675    ( 0.0000,  0.0000,  0.0000)
 101 Cu    17.312454    3.738551   20.642609    ( 0.0000,  0.0000,  0.0000)
 102 Cu    15.984253    4.515698   10.002297    ( 0.0000,  0.0000,  0.0000)
 103 Cu    17.285285    5.287547   12.128695    ( 0.0000,  0.0000,  0.0000)
 104 Cu    18.596622    6.043649   14.268185    ( 0.0000,  0.0000,  0.0000)
 105 Cu    15.980691    4.533090   16.413539    ( 0.0000,  0.0000,  0.0000)
 106 Cu    17.291339    5.292375   18.549244    ( 0.0000,  0.0000,  0.0000)
 107 Cu    18.547560    6.017614   20.564671    ( 0.0000,  0.0000,  0.0000)
 108 Cl     3.977962    1.347823   22.568650    ( 0.0000,  0.0000,  0.0000)
 109 Cl     6.908243    2.131431   22.523215    ( 0.0000,  0.0000,  0.0000)
 110 Cl     5.499069    4.621772   22.524126    ( 0.0000,  0.0000,  0.0000)
 111 Cl     8.218733   -0.995830   22.532267    ( 0.0000,  0.0000,  0.0000)
 112 Cl    11.086679    0.007106   22.550228    ( 0.0000,  0.0000,  0.0000)
 113 Cl     9.709346    2.301219   22.527696    ( 0.0000,  0.0000,  0.0000)
 114 Cl    13.058889    2.842453   22.544805    ( 0.0000,  0.0000,  0.0000)
 115 Cl    16.464231    4.432640   22.566489    ( 0.0000,  0.0000,  0.0000)
 116 Cl    15.334893   -0.056342   22.610749    ( 0.0000,  0.0000,  0.0000)
 117 Cl     9.228374    5.196821   22.503703    ( 0.0000,  0.0000,  0.0000)
 118 Cl    15.049393    2.795938    7.890457    ( 0.0000,  0.0000,  0.0000)
 119 Cl    12.135030    3.697530    7.873307    ( 0.0000,  0.0000,  0.0000)
 120 Cl    13.485797    5.745528    7.762757    ( 0.0000,  0.0000,  0.0000)
 121 Cl    10.930262    0.541682    7.825879    ( 0.0000,  0.0000,  0.0000)
 122 Cl     7.872427    1.445868    7.969351    ( 0.0000,  0.0000,  0.0000)
 123 Cl     9.254299    3.705981    7.981034    ( 0.0000,  0.0000,  0.0000)
 124 Cl     6.035569    4.382883    7.891033    ( 0.0000,  0.0000,  0.0000)
 125 Cl     2.635720    6.049300    7.967182    ( 0.0000,  0.0000,  0.0000)
 126 Cl     3.454277    1.327279    7.956627    ( 0.0000,  0.0000,  0.0000)
 127 Cl     9.799304    6.424417    7.857608    ( 0.0000,  0.0000,  0.0000)

Unit cell:
           periodic     x           y           z      points  spacing
  1. axis:    yes   15.702014    0.000000    0.000000    90     0.1511
  2. axis:    yes    3.925503    6.799171    0.000000    45     0.1511
  3. axis:    yes    0.000000    0.000000   30.683867   175     0.1753

  Lengths:  15.702014   7.851006  30.683867
  Angles:   90.000000  90.000000  60.000001

Effective grid spacing dv^(1/3) = 0.1666

     iter     time        total  log10-change:
                         energy  eigst   dens
iter:   1 09:10:17 -8918.172820  -1.52
iter:   2 09:16:46 -8952.495514  -1.55  -1.85
iter:   3 09:23:16 -8912.673624  -1.77  -1.56
iter:   4 09:29:46 -8906.206518  -2.85  -2.04
iter:   5 09:36:17 -8906.028949  -3.28  -2.39
iter:   6 09:42:46 -8905.451255  -3.42  -2.41
iter:   7 09:49:15 -8905.286880  -3.77  -2.60
iter:   8 09:55:44 -8905.355603c -4.34  -2.66
iter:   9 10:02:12 -8905.253187c -5.02  -2.59
iter:  10 10:08:40 -8905.188184c -3.78  -2.70
iter:  11 10:15:08 -8905.163781c -3.91  -2.91
iter:  12 10:21:36 -8905.152590c -4.49  -3.05
iter:  13 10:28:03 -8905.140291c -5.05  -3.11
iter:  14 10:34:28 -8905.177467c -4.59  -3.14
iter:  15 10:40:55 -8905.137290c -4.82  -3.12
iter:  16 10:47:26 -8905.141591c -5.41  -3.29
iter:  17 10:53:56 -8905.136517c -5.83  -3.52
iter:  18 11:00:24 -8905.135069c -5.53  -3.68
iter:  19 11:06:52 -8905.137468c -6.27  -3.88
iter:  20 11:13:18 -8905.134249c -6.33  -3.94
iter:  21 11:19:44 -8905.134571c -6.73  -3.94
iter:  22 11:26:11 -8905.136617c -6.43  -4.06c
iter:  23 11:32:36 -8905.137068c -7.37  -4.30c
iter:  24 11:39:04 -8905.136027c -7.21  -4.23c
iter:  25 11:45:29 -8905.135862c -7.80c -4.47c

Converged after 25 iterations.

Dipole moment: (30.989687, 13.492828, -0.210660) |e|*Ang

Energy contributions relative to reference atoms: (reference = -5113415.786755)

Kinetic:       +1009.264668
Potential:     -1060.872300
External:        +0.000000
XC:            -8851.556229
Entropy (-ST):   -1.243011
Local:           -1.350495
--------------------------
Free energy:   -8905.757368
Extrapolated:  -8905.135862

Showing only first 2 kpts
 Kpt  Band  Eigenvalues  Occupancy
  0   662      0.43571    1.03213
  0   663      0.45335    0.94403
  0   664      0.46345    0.89385
  0   665      0.53417    0.56978

  1   662      0.29310    1.63227
  1   663      0.31769    1.55269
  1   664      0.35806    1.39728
  1   665      0.45063    0.95757


Fermi level: 0.44214

No gap

Forces in eV/Ang:
  0 Cu   -0.06148   -0.01229   -0.21754
  1 Cu    0.01944    0.11666   -0.08434
  2 Cu    0.02110   -0.00638   -0.10131
  3 Cu   -0.01744   -0.00428   -0.17410
  4 Cu    0.01240    0.05834   -0.13606
  5 Cu   -0.03284   -0.03478   -0.13096
  6 Cu   -0.01552   -0.05106   -0.14061
  7 Cu   -0.04022    0.02163    0.00976
  8 Cu   -0.00673    0.00652    0.02026
  9 Cu   -0.01544    0.01206   -0.02943
 10 Cu   -0.00974    0.00338   -0.08411
 11 Cu    0.01076   -0.01313   -0.01458
 12 Cu   -0.00107    0.01693    0.01314
 13 Cu   -0.03307   -0.00472    0.01113
 14 Cu    0.00104    0.00612    0.01055
 15 Cu    0.01478   -0.00021    0.03670
 16 Cu    0.03465    0.03735   -0.02644
 17 Cu   -0.03450   -0.03117    0.02534
 18 Cu   -0.00625   -0.00571   -0.04420
 19 Cu    0.03315   -0.01539   -0.01603
 20 Cu   -0.11885    0.01972    0.18015
 21 Cu   -0.02255   -0.02129    0.16587
 22 Cu   -0.00814   -0.03449   -0.08782
 23 Cu    0.02441    0.00050    0.15488
 24 Cu   -0.08529    0.03879    0.21800
 25 Cu   -0.04410   -0.03213   -0.14677
 26 Cu    0.00618   -0.01659   -0.04942
 27 Cu    0.04895    0.04310   -0.13440
 28 Cu   -0.00148   -0.00514    0.00553
 29 Cu    0.01210    0.00070   -0.01798
 30 Cu    0.00661    0.00878    0.00054
 31 Cu   -0.00723   -0.01227   -0.04143
 32 Cu    0.05457   -0.04183   -0.08914
 33 Cu   -0.00415    0.02007    0.01023
 34 Cu   -0.06016    0.07757    0.01161
 35 Cu   -0.06392    0.07052    0.07031
 36 Cu   -0.01870   -0.04799   -0.22033
 37 Cu   -0.14723    0.04445   -0.06700
 38 Cu   -0.03432    0.02050   -0.02606
 39 Cu    0.00628    0.06702    0.06136
 40 Cu    0.00432   -0.00934   -0.01175
 41 Cu    0.00311    0.00364   -0.00613
 42 Cu    0.00379   -0.00270   -0.00370
 43 Cu    0.00932   -0.00578   -0.02580
 44 Cu   -0.04050   -0.00965   -0.06174
 45 Cu    0.00469    0.01305   -0.04231
 46 Cu    0.17824   -0.13237   -0.05138
 47 Cu    0.05001    0.01753    0.11280
 48 Cu   -0.12387    0.08017   -0.12076
 49 Cu   -0.01942   -0.07506    0.00514
 50 Cu    0.00440   -0.00323   -0.02731
 51 Cu   -0.00584    0.00822    0.00175
 52 Cu   -0.00601    0.01056   -0.02147
 53 Cu    0.02758   -0.08230    0.16483
 54 Cu    0.13616    0.09019    0.26057
 55 Cu    0.06867    0.03334    0.03849
 56 Cu   -0.01452    0.02613    0.03789
 57 Cu    0.03167   -0.02845   -0.03251
 58 Cu   -0.03065   -0.00432   -0.04106
 59 Cu   -0.04973    0.06960    0.02576
 60 Cu    0.02132   -0.01660    0.02902
 61 Cu    0.14215    0.03762    0.00543
 62 Cu   -0.00763    0.00128    0.00921
 63 Cu    0.01367    0.00470   -0.00729
 64 Cu    0.01813   -0.00804   -0.02130
 65 Cu   -0.00540   -0.00034   -0.03809
 66 Cu    0.00045    0.00068    0.00135
 67 Cu   -0.00166    0.00793    0.01085
 68 Cu   -0.01305   -0.00279   -0.00533
 69 Cu   -0.00036    0.00502   -0.03066
 70 Cu    0.01061    0.01951   -0.12846
 71 Cu   -0.05432    0.04079   -0.10985
 72 Cu    0.02975    0.01028    0.00705
 73 Cu    0.07046    0.02012   -0.13974
 74 Cu    0.09517   -0.08405    0.06982
 75 Cu    0.04345   -0.05073    0.26128
 76 Cu   -0.02181    0.04101    0.23341
 77 Cu    0.10925    0.05773    0.21100
 78 Cu    0.01650    0.02372    0.12543
 79 Cu    0.02511    0.04422   -0.10953
 80 Cu   -0.04754    0.01461   -0.07913
 81 Cu    0.00249   -0.07025    0.05031
 82 Cu   -0.01432    0.00223   -0.02897
 83 Cu   -0.00063    0.00156   -0.02144
 84 Cu   -0.01262   -0.00136   -0.02410
 85 Cu   -0.00244    0.00560   -0.00831
 86 Cu   -0.02509    0.00865   -0.07425
 87 Cu   -0.00175   -0.07912   -0.09727
 88 Cu   -0.10458   -0.04176    0.25034
 89 Cu    0.02346   -0.03147    0.19391
 90 Cu   -0.07469    0.00762   -0.03524
 91 Cu    0.01460   -0.08934    0.12438
 92 Cu    0.05267   -0.03211   -0.01188
 93 Cu    0.00165    0.00365   -0.03741
 94 Cu    0.01005   -0.00580    0.00840
 95 Cu    0.00331   -0.00653   -0.02296
 96 Cu   -0.00464   -0.00479   -0.03834
 97 Cu   -0.00101    0.00477   -0.00492
 98 Cu   -0.03542   -0.04690    0.02087
 99 Cu   -0.02062    0.08185   -0.07904
100 Cu   -0.07301   -0.20530    0.22581
101 Cu    0.04765   -0.14387   -0.17081
102 Cu    0.00130   -0.13421   -0.02554
103 Cu   -0.00920   -0.00782   -0.06042
104 Cu    0.00485   -0.00040   -0.05576
105 Cu    0.00841   -0.00216    0.01194
106 Cu   -0.02080   -0.07108   -0.25733
107 Cu    0.16674    0.08058    0.29854
108 Cl   -0.94017    0.12109    0.08420
109 Cl   -0.37062   -0.68494   -0.02860
110 Cl    0.09745    0.21153   -0.21184
111 Cl    0.00693    0.15427   -0.10017
112 Cl    0.82732   -0.15109   -0.01479
113 Cl    0.47074    0.58470   -0.01874
114 Cl    0.64611   -0.30960   -0.18434
115 Cl    0.41814   -1.23589    0.13322
116 Cl   -0.58023    1.33425   -0.35381
117 Cl   -0.86861    0.48710    0.00950
118 Cl    1.10965    0.00583    0.27478
119 Cl    0.00685   -0.12533    0.07372
120 Cl   -0.24003   -1.46000   -0.80225
121 Cl    1.09116    1.05595   -0.58941
122 Cl   -0.56695    0.10379    0.36621
123 Cl   -0.42698    0.27831    0.38726
124 Cl   -0.19066    0.17439    0.06956
125 Cl    0.05090   -0.21278    0.67772
126 Cl   -1.03996    0.56899    0.73540
127 Cl    0.46068   -0.56716    0.03080

System changes: positions 

Initializing position-dependent things.

Density initialized from wave functions
                                                                  
                                                                  
                                                                  
                                                                  
                                 Cl                               
                        Cl                        Cl              
                        CCl    CuCl  Cu  Cl Cu    Cu     Cu       
                 Cl                                               
                    Cu    CCl    CuCl  Cu    Clu    Cu            
               Cu    CCu   CCu    CCu   CCu   CCu    Cu           
                                                                  
                Cu     Cu    Cu    Cu     Cu    Cu                
           Cu    CCu   CCu    CCu   CCu    CCu   Cu               
                                                                  
            Cu     Cu   CCu    CCu   CCu    CCu   Cu     Cu       
        Cu    Cu    CCu   CCu    CCu   CCu    Cu    Cu            
                                                                  
               Cu    CCu   CCu    CCu   CCu   CCu    Cu           
                Cu     Cu    Cu    Cu     Cu    Cu                
                                                                  
           Cu    CCu   CCu    CCu   CCu    CCu   Cu               
                                      Cu     Cu                   
            Cu   ClCu    Cu     Cu Cl       Cl                    
        Cu    Cu     Cu  ClCu   ClCu   CCu                        
                Cl         Cl                 Cl                  
                                  Cl                              
                                                                  
                                                                  
                                                                  
                                                                  
                                                                  

Positions:
   0 Cu     2.878603    0.008706    9.940505    ( 0.0000,  0.0000,  0.0000)
   1 Cu     4.190591    2.284021    9.956211    ( 0.0000,  0.0000,  0.0000)
   2 Cu     0.276173   -0.002193    9.969852    ( 0.0000,  0.0000,  0.0000)
   3 Cu     1.585456    2.265844    9.968008    ( 0.0000,  0.0000,  0.0000)
   4 Cu     2.898584    3.037312   12.101794    ( 0.0000,  0.0000,  0.0000)
   5 Cu     1.576363    0.746102   12.101840    ( 0.0000,  0.0000,  0.0000)
   6 Cu     5.508835    3.010486   12.099113    ( 0.0000,  0.0000,  0.0000)
   7 Cu     4.204566    0.753682   12.131877    ( 0.0000,  0.0000,  0.0000)
   8 Cu     5.510567    1.512046   14.279392    ( 0.0000,  0.0000,  0.0000)
   9 Cu     6.816929    3.779559   14.268175    ( 0.0000,  0.0000,  0.0000)
  10 Cu     2.891851    1.511431   14.253676    ( 0.0000,  0.0000,  0.0000)
  11 Cu     4.205188    3.775051   14.273239    ( 0.0000,  0.0000,  0.0000)
  12 Cu     2.894871    0.003882   16.413559    ( 0.0000,  0.0000,  0.0000)
  13 Cu     4.194287    2.264536   16.414226    ( 0.0000,  0.0000,  0.0000)
  14 Cu     0.276377    0.000910   16.414785    ( 0.0000,  0.0000,  0.0000)
  15 Cu     1.588455    2.267071   16.419143    ( 0.0000,  0.0000,  0.0000)
  16 Cu     2.899880    3.034807   18.566192    ( 0.0000,  0.0000,  0.0000)
  17 Cu     1.584234    0.747778   18.568264    ( 0.0000,  0.0000,  0.0000)
  18 Cu     5.508183    3.018710   18.535111    ( 0.0000,  0.0000,  0.0000)
  19 Cu     4.213328    0.750443   18.550254    ( 0.0000,  0.0000,  0.0000)
  20 Cu     5.508048    1.498516   20.670387    ( 0.0000,  0.0000,  0.0000)
  21 Cu     6.833323    3.788791   20.681401    ( 0.0000,  0.0000,  0.0000)
  22 Cu     2.848199    1.512827   20.624311    ( 0.0000,  0.0000,  0.0000)
  23 Cu     4.180118    3.771819   20.692996    ( 0.0000,  0.0000,  0.0000)
  24 Cu     5.494127    4.540264   10.038239    ( 0.0000,  0.0000,  0.0000)
  25 Cu     2.879021    4.533676    9.954097    ( 0.0000,  0.0000,  0.0000)
  26 Cu     4.207877    5.282265   12.121460    ( 0.0000,  0.0000,  0.0000)
  27 Cu     6.831143    5.297718   12.102551    ( 0.0000,  0.0000,  0.0000)
  28 Cu     8.128419    6.042854   14.275305    ( 0.0000,  0.0000,  0.0000)
  29 Cu     5.513852    6.044331   14.270971    ( 0.0000,  0.0000,  0.0000)
  30 Cu     5.511672    4.534583   16.411497    ( 0.0000,  0.0000,  0.0000)
  31 Cu     2.891420    4.529811   16.401485    ( 0.0000,  0.0000,  0.0000)
  32 Cu     4.205840    5.276666   18.532208    ( 0.0000,  0.0000,  0.0000)
  33 Cu     6.819346    5.292484   18.561637    ( 0.0000,  0.0000,  0.0000)
  34 Cu     8.105630    6.061190   20.671936    ( 0.0000,  0.0000,  0.0000)
  35 Cu     5.518158    6.069345   20.688085    ( 0.0000,  0.0000,  0.0000)
  36 Cu     5.499568   -0.004256   10.070862    ( 0.0000,  0.0000,  0.0000)
  37 Cu     6.794185    2.275435    9.973403    ( 0.0000,  0.0000,  0.0000)
  38 Cu     8.121923    3.024794   12.130305    ( 0.0000,  0.0000,  0.0000)
  39 Cu     6.815962    0.766873   12.137206    ( 0.0000,  0.0000,  0.0000)
  40 Cu     8.129388    1.508705   14.270143    ( 0.0000,  0.0000,  0.0000)
  41 Cu     9.437802    3.778155   14.272435    ( 0.0000,  0.0000,  0.0000)
  42 Cu     5.511072   -0.001206   16.409993    ( 0.0000,  0.0000,  0.0000)
  43 Cu     6.821906    2.264955   16.404417    ( 0.0000,  0.0000,  0.0000)
  44 Cu     8.121949    3.023684   18.542310    ( 0.0000,  0.0000,  0.0000)
  45 Cu     6.817594    0.757800   18.553004    ( 0.0000,  0.0000,  0.0000)
  46 Cu     8.140199    1.480241   20.671963    ( 0.0000,  0.0000,  0.0000)
  47 Cu     9.442593    3.758794   20.632178    ( 0.0000,  0.0000,  0.0000)
  48 Cu     8.105448    4.543515    9.959525    ( 0.0000,  0.0000,  0.0000)
  49 Cu     9.431977    5.280196   12.126740    ( 0.0000,  0.0000,  0.0000)
  50 Cu    10.746296    6.043556   14.266727    ( 0.0000,  0.0000,  0.0000)
  51 Cu     8.126397    4.534427   16.412122    ( 0.0000,  0.0000,  0.0000)
  52 Cu     9.436531    5.289002   18.549428    ( 0.0000,  0.0000,  0.0000)
  53 Cu    10.737386    6.047571   20.666840    ( 0.0000,  0.0000,  0.0000)
  54 Cu    10.789760    0.008911   10.137354    ( 0.0000,  0.0000,  0.0000)
  55 Cu    12.069936    2.273401   10.018257    ( 0.0000,  0.0000,  0.0000)
  56 Cu     8.112152    0.012713   10.020875    ( 0.0000,  0.0000,  0.0000)
  57 Cu     9.438463    2.272702    9.988327    ( 0.0000,  0.0000,  0.0000)
  58 Cu    10.736839    3.019610   12.123028    ( 0.0000,  0.0000,  0.0000)
  59 Cu     9.428237    0.770804   12.132679    ( 0.0000,  0.0000,  0.0000)
  60 Cu    13.368922    3.018318   12.132443    ( 0.0000,  0.0000,  0.0000)
  61 Cu    12.080734    0.762210   12.123097    ( 0.0000,  0.0000,  0.0000)
  62 Cu    13.359339    1.511360   14.275214    ( 0.0000,  0.0000,  0.0000)
  63 Cu    14.674243    3.779205   14.271495    ( 0.0000,  0.0000,  0.0000)
  64 Cu    10.749669    1.509591   14.268470    ( 0.0000,  0.0000,  0.0000)
  65 Cu    12.052303    3.776513   14.264823    ( 0.0000,  0.0000,  0.0000)
  66 Cu    10.744838    0.000375   16.412436    ( 0.0000,  0.0000,  0.0000)
  67 Cu    12.053173    2.267003   16.414939    ( 0.0000,  0.0000,  0.0000)
  68 Cu     8.124993   -0.000680   16.410880    ( 0.0000,  0.0000,  0.0000)
  69 Cu     9.435360    2.266797   16.405327    ( 0.0000,  0.0000,  0.0000)
  70 Cu    10.747054    3.025776   18.536392    ( 0.0000,  0.0000,  0.0000)
  71 Cu     9.425272    0.759826   18.531242    ( 0.0000,  0.0000,  0.0000)
  72 Cu    13.368988    3.025964   18.554117    ( 0.0000,  0.0000,  0.0000)
  73 Cu    12.064594    0.757567   18.538062    ( 0.0000,  0.0000,  0.0000)
  74 Cu    13.390872    1.496806   20.686546    ( 0.0000,  0.0000,  0.0000)
  75 Cu    14.675027    3.748224   20.719565    ( 0.0000,  0.0000,  0.0000)
  76 Cu    10.787756    1.513700   20.618183    ( 0.0000,  0.0000,  0.0000)
  77 Cu    12.052406    3.807893   20.653384    ( 0.0000,  0.0000,  0.0000)
  78 Cu    13.372228    4.527686   10.051122    ( 0.0000,  0.0000,  0.0000)
  79 Cu    10.739377    4.536685    9.974736    ( 0.0000,  0.0000,  0.0000)
  80 Cu    12.044619    5.291721   12.110329    ( 0.0000,  0.0000,  0.0000)
  81 Cu    14.668179    5.276871   12.128807    ( 0.0000,  0.0000,  0.0000)
  82 Cu    15.975699    6.044396   14.267606    ( 0.0000,  0.0000,  0.0000)
  83 Cu    13.362787    6.044593   14.269899    ( 0.0000,  0.0000,  0.0000)
  84 Cu    13.358299    4.532799   16.406218    ( 0.0000,  0.0000,  0.0000)
  85 Cu    10.743917    4.534654   16.410169    ( 0.0000,  0.0000,  0.0000)
  86 Cu    12.051057    5.286821   18.544927    ( 0.0000,  0.0000,  0.0000)
  87 Cu    14.664513    5.276071   18.537211    ( 0.0000,  0.0000,  0.0000)
  88 Cu    16.010076    6.035352   20.611938    ( 0.0000,  0.0000,  0.0000)
  89 Cu    13.397220    6.039483   20.619104    ( 0.0000,  0.0000,  0.0000)
  90 Cu    13.364438   -0.009630    9.970113    ( 0.0000,  0.0000,  0.0000)
  91 Cu    14.680531    2.241223   10.036326    ( 0.0000,  0.0000,  0.0000)
  92 Cu    15.986065    3.014104   12.128667    ( 0.0000,  0.0000,  0.0000)
  93 Cu    14.669287    0.763692   12.121233    ( 0.0000,  0.0000,  0.0000)
  94 Cu    15.982048    1.510480   14.275446    ( 0.0000,  0.0000,  0.0000)
  95 Cu    17.287802    3.775993   14.266545    ( 0.0000,  0.0000,  0.0000)
  96 Cu    13.359644   -0.001170   16.403013    ( 0.0000,  0.0000,  0.0000)
  97 Cu    14.669670    2.266201   16.409513    ( 0.0000,  0.0000,  0.0000)
  98 Cu    15.969752    3.011422   18.561269    ( 0.0000,  0.0000,  0.0000)
  99 Cu    14.658279    0.768733   18.541323    ( 0.0000,  0.0000,  0.0000)
 100 Cu    15.975445    1.478083   20.712769    ( 0.0000,  0.0000,  0.0000)
 101 Cu    17.322450    3.715231   20.616877    ( 0.0000,  0.0000,  0.0000)
 102 Cu    15.985402    4.497852    9.998791    ( 0.0000,  0.0000,  0.0000)
 103 Cu    17.283698    5.286605   12.120987    ( 0.0000,  0.0000,  0.0000)
 104 Cu    18.597176    6.043511   14.261394    ( 0.0000,  0.0000,  0.0000)
 105 Cu    15.982037    4.532951   16.415283    ( 0.0000,  0.0000,  0.0000)
 106 Cu    17.289755    5.285375   18.520754    ( 0.0000,  0.0000,  0.0000)
 107 Cu    18.561500    6.024728   20.587096    ( 0.0000,  0.0000,  0.0000)
 108 Cl     3.852439    1.357566   22.587525    ( 0.0000,  0.0000,  0.0000)
 109 Cl     6.884021    2.032342   22.521403    ( 0.0000,  0.0000,  0.0000)
 110 Cl     5.508698    4.660063   22.502306    ( 0.0000,  0.0000,  0.0000)
 111 Cl     8.217172   -0.969347   22.534247    ( 0.0000,  0.0000,  0.0000)
 112 Cl    11.185662   -0.001866   22.564184    ( 0.0000,  0.0000,  0.0000)
 113 Cl     9.755358    2.379002   22.537045    ( 0.0000,  0.0000,  0.0000)
 114 Cl    13.147151    2.791961   22.529060    ( 0.0000,  0.0000,  0.0000)
 115 Cl    16.524915    4.262242   22.589800    ( 0.0000,  0.0000,  0.0000)
 116 Cl    15.260132    0.120466   22.578647    ( 0.0000,  0.0000,  0.0000)
 117 Cl     9.111473    5.263511   22.513246    ( 0.0000,  0.0000,  0.0000)
 118 Cl    15.195412    2.794665    7.926203    ( 0.0000,  0.0000,  0.0000)
 119 Cl    12.123751    3.689366    7.875299    ( 0.0000,  0.0000,  0.0000)
 120 Cl    13.559298    5.644824    7.670297    ( 0.0000,  0.0000,  0.0000)
 121 Cl    10.975152    0.579282    7.756986    ( 0.0000,  0.0000,  0.0000)
 122 Cl     7.793506    1.468891    8.018890    ( 0.0000,  0.0000,  0.0000)
 123 Cl     9.204457    3.745326    8.033417    ( 0.0000,  0.0000,  0.0000)
 124 Cl     6.011401    4.404586    7.904274    ( 0.0000,  0.0000,  0.0000)
 125 Cl     2.641622    6.022053    8.062067    ( 0.0000,  0.0000,  0.0000)
 126 Cl     3.304277    1.413631    8.056845    ( 0.0000,  0.0000,  0.0000)
 127 Cl     9.875470    6.336008    7.851932    ( 0.0000,  0.0000,  0.0000)

Unit cell:
           periodic     x           y           z      points  spacing
  1. axis:    yes   15.702014    0.000000    0.000000    90     0.1511
  2. axis:    yes    3.925503    6.799171    0.000000    45     0.1511
  3. axis:    yes    0.000000    0.000000   30.683867   175     0.1753

  Lengths:  15.702014   7.851006  30.683867
  Angles:   90.000000  90.000000  60.000001

Effective grid spacing dv^(1/3) = 0.1666

     iter     time        total  log10-change:
                         energy  eigst   dens
iter:   1 11:55:53 -8918.139504  -1.71
iter:   2 12:02:21 -8952.640260  -1.51  -1.84
iter:   3 12:08:51 -8911.122197  -1.96  -1.55
iter:   4 12:15:21 -8907.552133  -2.68  -2.15
iter:   5 12:21:51 -8907.308947  -3.24  -2.51
iter:   6 12:28:22 -8907.097441c -3.90  -2.57
iter:   7 12:34:50 -8907.013775c -3.82  -2.74
iter:   8 12:41:20 -8906.957299c -4.10  -2.89
iter:   9 12:47:49 -8906.956397c -5.20  -3.01
iter:  10 12:54:19 -8906.961697c -4.58  -3.09
iter:  11 13:00:47 -8906.948378c -4.72  -3.21
iter:  12 13:07:16 -8906.947742c -5.30  -3.25
iter:  13 13:13:45 -8906.945819c -5.25  -3.50
iter:  14 13:20:17 -8906.943323c -5.69  -3.67
iter:  15 13:26:47 -8906.943645c -6.39  -3.81
iter:  16 13:33:18 -8906.943263c -6.05  -3.91
iter:  17 13:39:47 -8906.945958c -6.24  -4.01c
iter:  18 13:46:19 -8906.943837c -6.99  -4.05c
iter:  19 13:52:51 -8906.945100c -6.75  -4.14c
iter:  20 13:59:25 -8906.944413c -7.12  -4.24c
iter:  21 14:05:58 -8906.944280c -7.54c -4.44c

Converged after 21 iterations.

Dipole moment: (19.409296, -0.124063, -0.386103) |e|*Ang

Energy contributions relative to reference atoms: (reference = -5113415.786755)

Kinetic:       +1007.053800
Potential:     -1060.542390
External:        +0.000000
XC:            -8851.606174
Entropy (-ST):   -1.190974
Local:           -1.254029
--------------------------
Free energy:   -8907.539767
Extrapolated:  -8906.944280

Showing only first 2 kpts
 Kpt  Band  Eigenvalues  Occupancy
  0   662      0.44799    1.02465
  0   663      0.46569    0.93624
  0   664      0.47416    0.89422
  0   665      0.55152    0.54340

  1   662      0.28853    1.67613
  1   663      0.31367    1.60199
  1   664      0.38227    1.33925
  1   665      0.46342    0.94753


Fermi level: 0.45292

No gap

Forces in eV/Ang:
  0 Cu   -0.06004   -0.15622    0.04108
  1 Cu    0.19770    0.19473    0.29298
  2 Cu    0.02915   -0.00037    0.00289
  3 Cu   -0.07649    0.00295   -0.14777
  4 Cu   -0.01887    0.03187   -0.09267
  5 Cu   -0.01906   -0.00962   -0.09164
  6 Cu   -0.01498   -0.03723   -0.03903
  7 Cu   -0.01628    0.00211   -0.06209
  8 Cu   -0.01541    0.00944   -0.00369
  9 Cu   -0.01634    0.01409   -0.05018
 10 Cu   -0.01337    0.00818   -0.06721
 11 Cu    0.00888   -0.01331   -0.04773
 12 Cu   -0.00820    0.01218   -0.00183
 13 Cu   -0.01259   -0.00154   -0.01297
 14 Cu    0.00012   -0.00161   -0.02034
 15 Cu    0.00561   -0.00433    0.00931
 16 Cu    0.05327   -0.00677   -0.08942
 17 Cu   -0.05412    0.00061   -0.00217
 18 Cu    0.01031   -0.01163    0.04301
 19 Cu    0.01578    0.00853   -0.00157
[...]
  1. axis:    yes   15.702014    0.000000    0.000000    90     0.1511
  2. axis:    yes    3.925503    6.799171    0.000000    45     0.1511
  3. axis:    yes    0.000000    0.000000   30.683867   175     0.1753

  Lengths:  15.702014   7.851006  30.683867
  Angles:   90.000000  90.000000  60.000001

Effective grid spacing dv^(1/3) = 0.1666

     iter     time        total  log10-change:
                         energy  eigst   dens
iter:   1 11:50:35 -8913.145121  -1.75
iter:   2 11:56:47 -8919.655435  -2.16  -2.14
iter:   3 12:02:59 -8910.788889  -2.53  -1.93
iter:   4 12:09:12 -8910.014422  -3.75  -2.40
iter:   5 12:15:25 -8909.898968  -3.97  -2.63
iter:   6 12:21:37 -8909.776932c -3.53  -2.71
iter:   7 12:27:52 -8909.750723c -4.36  -2.96
iter:   8 12:34:07 -8909.767455c -4.42  -3.07
iter:   9 12:40:20 -8909.754537c -5.03  -3.14
iter:  10 12:46:32 -8909.742073c -4.96  -3.20
iter:  11 12:52:43 -8909.747579c -4.92  -3.39
iter:  12 12:58:55 -8909.746259c -5.92  -3.62
iter:  13 13:05:06 -8909.743921c -6.19  -3.67
iter:  14 13:11:16 -8909.743690c -5.30  -3.74
iter:  15 13:17:27 -8909.743842c -6.30  -3.97
iter:  16 13:23:38 -8909.743531c -6.35  -4.12c
iter:  17 13:29:51 -8909.743301c -6.19  -4.26c
iter:  18 13:36:04 -8909.743651c -7.36  -4.38c
iter:  19 13:42:15 -8909.743415c -7.93c -4.44c

Converged after 19 iterations.

Dipole moment: (23.245600, 20.240953, -0.054496) |e|*Ang

Energy contributions relative to reference atoms: (reference = -5113415.786755)

Kinetic:       +1016.098183
Potential:     -1069.493434
External:        +0.000000
XC:            -8854.541586
Entropy (-ST):   -1.127084
Local:           -1.243037
--------------------------
Free energy:   -8910.306957
Extrapolated:  -8909.743415

Showing only first 2 kpts
 Kpt  Band  Eigenvalues  Occupancy
  0   662      0.36857    1.01318
  0   663      0.39258    0.89356
  0   664      0.41393    0.78959
  0   665      0.45988    0.58358

  1   662      0.21632    1.64950
  1   663      0.26671    1.47961
  1   664      0.32246    1.23900
  1   665      0.37595    0.97627


Fermi level: 0.37121

No gap

Forces in eV/Ang:
  0 Cu   -0.00506    0.07658   -0.05019
  1 Cu   -0.02714    0.03636   -0.11571
  2 Cu    0.04540    0.02962    0.00200
  3 Cu   -0.15179    0.08844   -0.03047
  4 Cu    0.04548   -0.01240    0.02568
  5 Cu    0.00872   -0.02563   -0.02865
  6 Cu   -0.01330    0.00980   -0.11365
  7 Cu    0.06209    0.00720    0.02354
  8 Cu   -0.02833    0.04634   -0.02079
  9 Cu   -0.02638   -0.00193    0.04738
 10 Cu    0.00995   -0.00756    0.00483
 11 Cu   -0.01161    0.03827    0.06096
 12 Cu   -0.00640    0.00882   -0.01513
 13 Cu   -0.01973    0.01589    0.02517
 14 Cu   -0.00592   -0.00329    0.00767
 15 Cu   -0.00075    0.02289   -0.04582
 16 Cu   -0.02865   -0.01540    0.01299
 17 Cu    0.02513    0.06886   -0.03290
 18 Cu   -0.00017    0.00325    0.02433
 19 Cu   -0.06310    0.00010    0.05082
 20 Cu    0.01954   -0.02808   -0.08172
 21 Cu   -0.05207    0.06756    0.12120
 22 Cu   -0.01921   -0.00365    0.05458
 23 Cu   -0.00663    0.11057   -0.06656
 24 Cu    0.01508   -0.07516    0.01738
 25 Cu   -0.08294   -0.03225    0.01213
 26 Cu    0.00852    0.00360   -0.03938
 27 Cu    0.01864   -0.02257   -0.06329
 28 Cu   -0.03871    0.00930    0.00340
 29 Cu   -0.01108   -0.01845    0.01285
 30 Cu   -0.02433    0.00285    0.05197
 31 Cu   -0.02710    0.00478    0.03249
 32 Cu    0.04662    0.01940   -0.00734
 33 Cu    0.03515   -0.01896   -0.00111
 34 Cu   -0.06381    0.01056   -0.00156
 35 Cu    0.03747    0.04095    0.02789
 36 Cu    0.02985    0.02015   -0.22354
 37 Cu   -0.04819   -0.06146    0.03075
 38 Cu    0.04186   -0.05659    0.03050
 39 Cu    0.01717   -0.03475   -0.03218
 40 Cu   -0.03179   -0.03178   -0.05580
 41 Cu    0.03727    0.00836   -0.07096
 42 Cu   -0.02615    0.01568    0.03831
 43 Cu   -0.02834   -0.02114    0.02862
 44 Cu    0.01034   -0.01726   -0.03892
 45 Cu    0.00103    0.01146   -0.02030
 46 Cu   -0.00155    0.04520    0.00206
 47 Cu   -0.08685    0.00941    0.00021
 48 Cu    0.10755    0.01593   -0.12332
 49 Cu   -0.02369   -0.02103   -0.02734
 50 Cu   -0.05201    0.01129    0.04008
 51 Cu   -0.00296   -0.01401   -0.04481
 52 Cu   -0.03049    0.02750   -0.02902
 53 Cu   -0.05593    0.12758    0.02611
 54 Cu    0.01725   -0.04034   -0.17864
 55 Cu   -0.04258   -0.13995    0.00697
 56 Cu    0.06229   -0.05994    0.01540
 57 Cu    0.06063    0.18836    0.08488
 58 Cu    0.04332   -0.05735   -0.05809
 59 Cu    0.01213   -0.09767   -0.10020
 60 Cu   -0.01148   -0.00222    0.09071
 61 Cu    0.02068   -0.02145   -0.20619
 62 Cu   -0.01393   -0.08897   -0.01385
 63 Cu    0.02253   -0.02065    0.05014
 64 Cu   -0.00401   -0.02660   -0.04205
 65 Cu    0.01141   -0.06063    0.04586
 66 Cu    0.01127    0.00278    0.06307
 67 Cu    0.00463   -0.03140    0.03758
 68 Cu   -0.02716    0.06249    0.00945
 69 Cu   -0.00780    0.01580   -0.04307
 70 Cu   -0.01539   -0.02119   -0.06019
 71 Cu   -0.02537    0.00058   -0.02927
 72 Cu   -0.01391   -0.14068   -0.12046
 73 Cu    0.01254   -0.05952    0.02288
 74 Cu   -0.02129    0.04830    0.10302
 75 Cu    0.18550    0.05997    0.04021
 76 Cu   -0.03471   -0.10100    0.05482
 77 Cu   -0.02889   -0.02256   -0.11207
 78 Cu   -0.00972    0.11011    0.03341
 79 Cu    0.42665    0.26849    0.67067
 80 Cu    0.07236    0.01993    0.18675
 81 Cu    0.03670    0.05171   -0.04868
 82 Cu    0.00670    0.04344    0.01132
 83 Cu    0.01751   -0.02420    0.16361
 84 Cu   -0.01902   -0.01314    0.02994
 85 Cu    0.00750   -0.00720   -0.01228
 86 Cu   -0.01707    0.04325   -0.05541
 87 Cu   -0.05920   -0.09134   -0.05439
 88 Cu   -0.01130    0.04609    0.02417
 89 Cu   -0.02027   -0.08464    0.03503
 90 Cu    0.08770   -0.11877   -0.13404
 91 Cu   -0.11657   -0.03239    0.05687
 92 Cu   -0.03643    0.06213   -0.05299
 93 Cu   -0.04824   -0.05276    0.03726
 94 Cu    0.03331   -0.01109   -0.03837
 95 Cu   -0.02317   -0.01579   -0.00720
 96 Cu    0.00045    0.01063    0.06922
 97 Cu    0.00632   -0.06036    0.01173
 98 Cu   -0.00120    0.01378    0.02383
 99 Cu   -0.01498    0.00030    0.06523
100 Cu   -0.03703   -0.18881   -0.06187
101 Cu    0.06358   -0.09631    0.04306
102 Cu   -0.05089    0.05661   -0.08301
103 Cu   -0.01997    0.02898    0.04914
104 Cu    0.00860   -0.02543    0.05090
105 Cu    0.00935   -0.01499    0.02288
106 Cu    0.01519   -0.06491   -0.03829
107 Cu    0.04494    0.06430    0.05210
108 Cl   -0.26286   -0.05309    0.12918
109 Cl   -0.15497    0.02482   -0.01050
110 Cl    0.17116    0.10766   -0.07179
111 Cl   -0.05349    0.01999   -0.07600
112 Cl   -0.04366   -0.19436   -0.03939
113 Cl    0.00996    0.03452   -0.07065
114 Cl    0.27041   -0.08905   -0.12739
115 Cl    0.18257    0.06747    0.10395
116 Cl   -0.01187    0.08134   -0.08054
117 Cl    0.05630    0.19397    0.07521
118 Cl   -0.41615    0.25166    0.12524
119 Cl    0.36757    0.03571   -0.11421
120 Cl    0.15462    0.08365    0.01375
121 Cl   -0.11738   -0.47954    0.02390
122 Cl   -0.06103    0.08261    0.03956
123 Cl   -0.09386   -0.01553   -0.41003
124 Cl    0.20405   -0.00162    0.17703
125 Cl    0.10037   -0.06173    0.03665
126 Cl    0.00209    0.19873    0.05222
127 Cl   -0.34909   -0.02383    0.06891

System changes: positions 

Initializing position-dependent things.

Density initialized from wave functions
                                                                  
                                                                  
                                                                  
                                                                  
                                 Cl                               
                        Cl                                        
                        Cu       Cl  Cu  Cl Cu   Cl      Cu       
                 Cl      Cl    Cu                 Cu              
                    Cu    CCl    Cu Cl Cu   Clu     Cu            
               Cu    Cu    CCu    CCu   CCu   CCu    Cu           
                                                                  
                Cu     Cu    Cu    Cu     Cu    Cu                
           Cu    CCu   CCu    CCu   CCu    CCu   Cu               
                                                                  
            Cu     Cu   CCu    CCu   CCu    CCu   Cu     Cu       
        Cu    Cu    CCu   CCu    CCu   CCu   Cu     Cu            
                                                                  
               Cu    CCu   CCu   CCu    CCu   CCu    Cu           
                Cu    Cu     Cu    Cu                             
                                          Cu    Cu                
           Cu    CCu   CCu    CCu   CCu    CCu   Cu               
                  CCu    Cu           Cu                          
            Cu           Cl    Cu Cl        CCu                   
        Cu    Cu    Cu     Cu    Cu     Cu       Cl               
                Cl         Cl           Cl                        
                                    Cl                            
                                                                  
                                                                  
                                                                  
                                                                  
                                                                  

Positions:
   0 Cu     2.830925   -0.094362    9.880722    ( 0.0000,  0.0000,  0.0000)
   1 Cu     4.191532    2.256233   10.082814    ( 0.0000,  0.0000,  0.0000)
   2 Cu     0.213410   -0.016497   10.003315    ( 0.0000,  0.0000,  0.0000)
   3 Cu     1.614720    2.208386    9.969796    ( 0.0000,  0.0000,  0.0000)
   4 Cu     2.848164    3.039407   12.108578    ( 0.0000,  0.0000,  0.0000)
   5 Cu     1.555461    0.725497   12.071151    ( 0.0000,  0.0000,  0.0000)
   6 Cu     5.466159    3.005534   12.181584    ( 0.0000,  0.0000,  0.0000)
   7 Cu     4.166292    0.704066   12.071523    ( 0.0000,  0.0000,  0.0000)
   8 Cu     5.500198    1.478830   14.271051    ( 0.0000,  0.0000,  0.0000)
   9 Cu     6.803225    3.779734   14.285293    ( 0.0000,  0.0000,  0.0000)
  10 Cu     2.874898    1.498997   14.215259    ( 0.0000,  0.0000,  0.0000)
  11 Cu     4.182234    3.761488   14.254698    ( 0.0000,  0.0000,  0.0000)
  12 Cu     2.882605   -0.011502   16.370161    ( 0.0000,  0.0000,  0.0000)
  13 Cu     4.204909    2.248694   16.366432    ( 0.0000,  0.0000,  0.0000)
  14 Cu     0.248003   -0.019371   16.374339    ( 0.0000,  0.0000,  0.0000)
  15 Cu     1.573600    2.249675   16.384529    ( 0.0000,  0.0000,  0.0000)
  16 Cu     2.906804    3.019946   18.465260    ( 0.0000,  0.0000,  0.0000)
  17 Cu     1.530138    0.717539   18.507153    ( 0.0000,  0.0000,  0.0000)
  18 Cu     5.501425    2.990847   18.579695    ( 0.0000,  0.0000,  0.0000)
  19 Cu     4.235671    0.724248   18.461640    ( 0.0000,  0.0000,  0.0000)
  20 Cu     5.445918    1.417018   20.723495    ( 0.0000,  0.0000,  0.0000)
  21 Cu     6.821660    3.721185   20.744664    ( 0.0000,  0.0000,  0.0000)
  22 Cu     2.859111    1.449093   20.465810    ( 0.0000,  0.0000,  0.0000)
  23 Cu     4.151155    3.731833   20.811785    ( 0.0000,  0.0000,  0.0000)
  24 Cu     5.415430    4.497980   10.096512    ( 0.0000,  0.0000,  0.0000)
  25 Cu     2.854349    4.522217    9.991832    ( 0.0000,  0.0000,  0.0000)
  26 Cu     4.152371    5.283398   12.149992    ( 0.0000,  0.0000,  0.0000)
  27 Cu     6.791518    5.287075   12.119561    ( 0.0000,  0.0000,  0.0000)
  28 Cu     8.128791    6.034092   14.253162    ( 0.0000,  0.0000,  0.0000)
  29 Cu     5.492641    6.041526   14.244948    ( 0.0000,  0.0000,  0.0000)
  30 Cu     5.495364    4.517276   16.387116    ( 0.0000,  0.0000,  0.0000)
  31 Cu     2.880013    4.525768   16.321177    ( 0.0000,  0.0000,  0.0000)
  32 Cu     4.165085    5.218625   18.500172    ( 0.0000,  0.0000,  0.0000)
  33 Cu     6.790692    5.249129   18.504921    ( 0.0000,  0.0000,  0.0000)
  34 Cu     8.080350    5.997387   20.513053    ( 0.0000,  0.0000,  0.0000)
  35 Cu     5.483068    6.025522   20.559999    ( 0.0000,  0.0000,  0.0000)
  36 Cu     5.442209   -0.059984    9.808547    ( 0.0000,  0.0000,  0.0000)
  37 Cu     6.701079    2.258781   10.105758    ( 0.0000,  0.0000,  0.0000)
  38 Cu     8.083462    3.032426   12.145384    ( 0.0000,  0.0000,  0.0000)
  39 Cu     6.750595    0.720625   12.114273    ( 0.0000,  0.0000,  0.0000)
  40 Cu     8.103596    1.516824   14.298311    ( 0.0000,  0.0000,  0.0000)
  41 Cu     9.418317    3.783651   14.273630    ( 0.0000,  0.0000,  0.0000)
  42 Cu     5.541185   -0.025635   16.386531    ( 0.0000,  0.0000,  0.0000)
  43 Cu     6.823276    2.258967   16.436212    ( 0.0000,  0.0000,  0.0000)
  44 Cu     8.125363    3.016468   18.610635    ( 0.0000,  0.0000,  0.0000)
  45 Cu     6.839396    0.733700   18.618616    ( 0.0000,  0.0000,  0.0000)
  46 Cu     8.207107    1.456478   20.744623    ( 0.0000,  0.0000,  0.0000)
  47 Cu     9.451136    3.791738   20.726562    ( 0.0000,  0.0000,  0.0000)
  48 Cu     8.004704    4.485714    9.932808    ( 0.0000,  0.0000,  0.0000)
  49 Cu     9.388135    5.287175   12.049626    ( 0.0000,  0.0000,  0.0000)
  50 Cu    10.748733    6.024138   14.225238    ( 0.0000,  0.0000,  0.0000)
  51 Cu     8.130082    4.529442   16.426695    ( 0.0000,  0.0000,  0.0000)
  52 Cu     9.482605    5.261252   18.556955    ( 0.0000,  0.0000,  0.0000)
  53 Cu    10.747073    6.004955   20.806983    ( 0.0000,  0.0000,  0.0000)
  54 Cu    10.693232   -0.071697   10.088645    ( 0.0000,  0.0000,  0.0000)
  55 Cu    12.029672    2.287163    9.975609    ( 0.0000,  0.0000,  0.0000)
  56 Cu     8.045469   -0.109312    9.989360    ( 0.0000,  0.0000,  0.0000)
  57 Cu     9.359433    2.125325    9.993268    ( 0.0000,  0.0000,  0.0000)
  58 Cu    10.677554    2.998360   12.098854    ( 0.0000,  0.0000,  0.0000)
  59 Cu     9.362774    0.753611   12.161970    ( 0.0000,  0.0000,  0.0000)
  60 Cu    13.349435    2.991961   12.028286    ( 0.0000,  0.0000,  0.0000)
  61 Cu    11.988084    0.768674   12.161613    ( 0.0000,  0.0000,  0.0000)
  62 Cu    13.340402    1.540975   14.253490    ( 0.0000,  0.0000,  0.0000)
  63 Cu    14.646887    3.763685   14.218361    ( 0.0000,  0.0000,  0.0000)
  64 Cu    10.722166    1.529224   14.303452    ( 0.0000,  0.0000,  0.0000)
  65 Cu    12.037328    3.785585   14.200768    ( 0.0000,  0.0000,  0.0000)
  66 Cu    10.737109    0.005491   16.389476    ( 0.0000,  0.0000,  0.0000)
  67 Cu    12.047535    2.303277   16.419675    ( 0.0000,  0.0000,  0.0000)
  68 Cu     8.135940   -0.015397   16.429132    ( 0.0000,  0.0000,  0.0000)
  69 Cu     9.434008    2.276591   16.455133    ( 0.0000,  0.0000,  0.0000)
  70 Cu    10.764213    3.034523   18.627623    ( 0.0000,  0.0000,  0.0000)
  71 Cu     9.463227    0.770466   18.571343    ( 0.0000,  0.0000,  0.0000)
  72 Cu    13.356926    3.044878   18.640772    ( 0.0000,  0.0000,  0.0000)
  73 Cu    12.063343    0.798544   18.537087    ( 0.0000,  0.0000,  0.0000)
  74 Cu    13.376580    1.419736   20.813522    ( 0.0000,  0.0000,  0.0000)
  75 Cu    14.628869    3.738549   20.775801    ( 0.0000,  0.0000,  0.0000)
  76 Cu    10.825477    1.492223   20.741655    ( 0.0000,  0.0000,  0.0000)
  77 Cu    12.053875    3.799373   20.780088    ( 0.0000,  0.0000,  0.0000)
  78 Cu    13.329027    4.476265    9.919818    ( 0.0000,  0.0000,  0.0000)
  79 Cu    10.689374    4.511344    9.975016    ( 0.0000,  0.0000,  0.0000)
  80 Cu    11.992093    5.236065   12.022698    ( 0.0000,  0.0000,  0.0000)
  81 Cu    14.629660    5.239118   12.112491    ( 0.0000,  0.0000,  0.0000)
  82 Cu    15.946469    6.034842   14.251569    ( 0.0000,  0.0000,  0.0000)
  83 Cu    13.335541    6.039241   14.221117    ( 0.0000,  0.0000,  0.0000)
  84 Cu    13.353564    4.540498   16.388701    ( 0.0000,  0.0000,  0.0000)
  85 Cu    10.757152    4.528552   16.412642    ( 0.0000,  0.0000,  0.0000)
  86 Cu    12.063625    5.281879   18.615724    ( 0.0000,  0.0000,  0.0000)
  87 Cu    14.671005    5.276907   18.506787    ( 0.0000,  0.0000,  0.0000)
  88 Cu    16.000055    5.966825   20.502810    ( 0.0000,  0.0000,  0.0000)
  89 Cu    13.449685    6.047404   20.632400    ( 0.0000,  0.0000,  0.0000)
  90 Cu    13.261203    0.040350   10.031819    ( 0.0000,  0.0000,  0.0000)
  91 Cu    14.697547    2.246880    9.884035    ( 0.0000,  0.0000,  0.0000)
  92 Cu    15.973656    2.969170   12.092714    ( 0.0000,  0.0000,  0.0000)
  93 Cu    14.636442    0.778795   12.087006    ( 0.0000,  0.0000,  0.0000)
  94 Cu    15.955314    1.502978   14.263260    ( 0.0000,  0.0000,  0.0000)
  95 Cu    17.262719    3.769107   14.231244    ( 0.0000,  0.0000,  0.0000)
  96 Cu    13.343987    0.016063   16.356686    ( 0.0000,  0.0000,  0.0000)
  97 Cu    14.641861    2.286207   16.401313    ( 0.0000,  0.0000,  0.0000)
  98 Cu    15.943509    3.001512   18.514502    ( 0.0000,  0.0000,  0.0000)
  99 Cu    14.647893    0.777224   18.533429    ( 0.0000,  0.0000,  0.0000)
 100 Cu    16.007746    1.530963   20.770458    ( 0.0000,  0.0000,  0.0000)
 101 Cu    17.304552    3.787488   20.483250    ( 0.0000,  0.0000,  0.0000)
 102 Cu    15.974032    4.495227   10.004378    ( 0.0000,  0.0000,  0.0000)
 103 Cu    17.228239    5.289969   12.096660    ( 0.0000,  0.0000,  0.0000)
 104 Cu    18.554708    6.058378   14.211390    ( 0.0000,  0.0000,  0.0000)
 105 Cu    15.966709    4.526782   16.359287    ( 0.0000,  0.0000,  0.0000)
 106 Cu    17.289973    5.298703   18.430546    ( 0.0000,  0.0000,  0.0000)
 107 Cu    18.578923    5.979429   20.537857    ( 0.0000,  0.0000,  0.0000)
 108 Cl     3.596107    2.049956   22.496074    ( 0.0000,  0.0000,  0.0000)
 109 Cl     6.805253    1.986147   22.519835    ( 0.0000,  0.0000,  0.0000)
 110 Cl     5.519636    4.861413   22.518065    ( 0.0000,  0.0000,  0.0000)
 111 Cl     8.381151   -0.808425   22.592797    ( 0.0000,  0.0000,  0.0000)
 112 Cl    11.717983   -0.096161   22.555640    ( 0.0000,  0.0000,  0.0000)
 113 Cl     9.881924    2.518339   22.608846    ( 0.0000,  0.0000,  0.0000)
 114 Cl    13.114077    2.939289   22.645522    ( 0.0000,  0.0000,  0.0000)
 115 Cl    16.325734    3.370833   22.479362    ( 0.0000,  0.0000,  0.0000)
 116 Cl    15.020497    0.223565   22.516256    ( 0.0000,  0.0000,  0.0000)
 117 Cl     8.920502    5.600286   22.546063    ( 0.0000,  0.0000,  0.0000)
 118 Cl    16.075958    3.075927    8.095265    ( 0.0000,  0.0000,  0.0000)
 119 Cl    12.724002    3.195626    7.781961    ( 0.0000,  0.0000,  0.0000)
 120 Cl    13.608339    5.673440    7.867091    ( 0.0000,  0.0000,  0.0000)
 121 Cl    11.569354    0.826938    8.067047    ( 0.0000,  0.0000,  0.0000)
 122 Cl     7.754387    1.413041    8.266095    ( 0.0000,  0.0000,  0.0000)
 123 Cl     9.571701    3.671387    8.213098    ( 0.0000,  0.0000,  0.0000)
 124 Cl     6.186931    4.926551    8.029755    ( 0.0000,  0.0000,  0.0000)
 125 Cl     2.829660    6.086989    8.155745    ( 0.0000,  0.0000,  0.0000)
 126 Cl     3.155277    1.577132    8.168411    ( 0.0000,  0.0000,  0.0000)
 127 Cl     9.469851    6.496747    7.524017    ( 0.0000,  0.0000,  0.0000)

Unit cell:
           periodic     x           y           z      points  spacing
  1. axis:    yes   15.702014    0.000000    0.000000    90     0.1511
  2. axis:    yes    3.925503    6.799171    0.000000    45     0.1511
  3. axis:    yes    0.000000    0.000000   30.683867   175     0.1753

  Lengths:  15.702014   7.851006  30.683867
  Angles:   90.000000  90.000000  60.000001

Effective grid spacing dv^(1/3) = 0.1666

     iter     time        total  log10-change:
                         energy  eigst   dens
iter:   1 13:52:14 -8910.267937  -2.48
iter:   2 13:58:26 -8910.068608  -3.50  -2.68
iter:   3 14:04:39 -8910.014497c -4.21  -2.79
iter:   4 14:10:52 -8909.974097c -4.19  -2.91
iter:   5 14:17:04 -8909.962149c -4.14  -3.03
iter:   6 14:23:17 -8909.936771c -4.65  -3.15
iter:   7 14:29:29 -8909.933112c -4.84  -3.41
