
  ___ ___ ___ _ _ _  
 |   |   |_  | | | | 
 | | | | | . | | | | 
 |__ |  _|___|_____|  22.1.0
 |___|_|             

User:   thorkong@node024.cluster
Date:   Sat Oct  8 23:02:39 2022
Arch:   x86_64
Pid:    67725
Python: 3.10.5
gpaw:   /groups/kemi/thorkong/miniconda3/envs/gpaw22/lib/python3.10/site-packages/gpaw
_gpaw:  /groups/kemi/thorkong/miniconda3/envs/gpaw22/lib/python3.10/site-packages/
        _gpaw.cpython-310-x86_64-linux-gnu.so
ase:    /groups/kemi/thorkong/miniconda3/envs/gpaw22/lib/python3.10/site-packages/ase (version 3.22.1)
numpy:  /groups/kemi/thorkong/miniconda3/envs/gpaw22/lib/python3.10/site-packages/numpy (version 1.23.0)
scipy:  /groups/kemi/thorkong/miniconda3/envs/gpaw22/lib/python3.10/site-packages/scipy (version 1.8.1)
libxc:  5.2.3
units:  Angstrom and eV
cores: 32
OpenMP: True
OMP_NUM_THREADS: 1

Input parameters:
  basis: dzp
  kpts: [4 4 1]
  mode: {ecut: 600.0,
         name: pw}
  xc: BEEF-vdW

System changes: positions, numbers, cell, pbc, initial_charges, initial_magmoms 

Initialize ...

Cu-setup:
  name: Copper
  id: f1c4d45d90492f1bbfdcb091e8418fdf
  Z: 29.0
  valence: 11
  core: 18
  charge: 0.0
  file: /groups/kemi/thorkong/miniconda3/envs/gpaw22/share/gpaw/Cu.PBE.gz
  compensation charges: gauss, rc=0.33, lmax=2
  cutoffs: 2.06(filt), 2.43(core),
  valence states:
                energy  radius
    4s(1.00)    -4.609   1.164
    4p(0.00)    -0.698   1.164
    3d(10.00)    -5.039   1.058
    *s          22.603   1.164
    *p          26.513   1.164
    *d          22.172   1.058

  LCAO basis set for Cu:
    Name: dzp
    File: /groups/kemi/thorkong/miniconda3/envs/gpaw22/share/gpaw/Cu.dzp.basis.gz
    Number of radial functions: 5
    Number of spherical harmonics: 15
      l=0, rc=8.9688 Bohr: 4s-sz confined orbital
      l=2, rc=5.1719 Bohr: 3d-sz confined orbital
      l=0, rc=5.3281 Bohr: 4s-dz split-valence wave
      l=2, rc=3.1406 Bohr: 3d-dz split-valence wave
      l=1, rc=8.9688 Bohr: p-type Gaussian polarization

Cl-setup:
  name: Chlorine
  id: 726897f06f34e53cf8e33b5885a02604
  Z: 17.0
  valence: 7
  core: 10
  charge: 0.0
  file: /groups/kemi/thorkong/miniconda3/envs/gpaw22/share/gpaw/Cl.PBE.gz
  compensation charges: gauss, rc=0.25, lmax=2
  cutoffs: 1.40(filt), 1.49(core),
  valence states:
                energy  radius
    3s(2.00)   -20.689   0.794
    3p(5.00)    -8.594   0.794
    *s           6.523   0.794
    *p          18.617   0.794
    *d           0.000   0.794

  LCAO basis set for Cl:
    Name: dzp
    File: /groups/kemi/thorkong/miniconda3/envs/gpaw22/share/gpaw/Cl.dzp.basis.gz
    Number of radial functions: 5
    Number of spherical harmonics: 13
      l=0, rc=5.1719 Bohr: 3s-sz confined orbital
      l=1, rc=6.2656 Bohr: 3p-sz confined orbital
      l=0, rc=2.8281 Bohr: 3s-dz split-valence wave
      l=1, rc=3.5156 Bohr: 3p-dz split-valence wave
      l=2, rc=6.2656 Bohr: d-type Gaussian polarization

Reference energy: -3316874.228935

Spin-paired calculation

Convergence criteria:
 Maximum [total energy] change in last 3 cyles: 0.0005 eV / electron
 Maximum integral of absolute [dens]ity change: 0.0001 electrons / valence electron
 Maximum integral of absolute [eigenst]ate change: 4e-08 eV^2 / valence electron
 Maximum number of scf [iter]ations: 333
 (Square brackets indicate name in SCF output, whereas a 'c' in
 the SCF output indicates the quantity has converged.)

Symmetries present (total): 1

  ( 1  0  0)
  ( 0  1  0)
  ( 0  0  1)

16 k-points: 4 x 4 x 1 Monkhorst-Pack grid
8 k-points in the irreducible part of the Brillouin zone
       k-points in crystal coordinates                weights
   0:     0.12500000   -0.37500000    0.00000000          2/16
   1:     0.12500000   -0.12500000    0.00000000          2/16
   2:     0.12500000    0.12500000    0.00000000          2/16
   3:     0.12500000    0.37500000    0.00000000          2/16
   4:     0.37500000   -0.37500000    0.00000000          2/16
   5:     0.37500000   -0.12500000    0.00000000          2/16
   6:     0.37500000    0.12500000    0.00000000          2/16
   7:     0.37500000    0.37500000    0.00000000          2/16

Wave functions: Plane wave expansion
  Cutoff energy: 600.000 eV
  Number of coefficients (min, max): 66642, 66743
  Pulay-stress correction: 0.000000 eV/Ang^3 (de/decut=0.000000)
  Using FFTW library
  ScaLapack parameters: grid=2x2, blocksize=64
  Wavefunction extrapolation:
    Improved wavefunction reuse through dual PAW basis 

Occupation numbers: Fermi-Dirac: width=0.1000 eV
 

Eigensolver
   Davidson(niter=2) 

Densities:
  Coarse grid: 45*42*196 grid
  Fine grid: 90*84*392 grid
  Total Charge: 0.000000 

Density mixing:
  Method: separate
  Backend: pulay
  Linear mixing parameter: 0.05
  Mixing with 5 old densities
  Damping of long wave oscillations: 50 

Hamiltonian:
  XC and Coulomb potentials evaluated on a 90*84*392 grid
  Using the BEEF-vdW Exchange-Correlation functional
  External potential:
    NoExternalPotential
 

XC parameters: BEEF-vdW with 2 nearest neighbor stencil

Memory estimate:
  Process memory now: 249.56 MiB
  Calculator: 1152.51 MiB
    Density: 47.57 MiB
      Arrays: 18.37 MiB
      Localized functions: 22.13 MiB
      Mixer: 7.07 MiB
    Hamiltonian: 12.55 MiB
      Arrays: 12.01 MiB
      XC: 0.00 MiB
      Poisson: 0.00 MiB
      vbar: 0.54 MiB
    Wavefunctions: 1092.39 MiB
      Arrays psit_nG: 514.30 MiB
      Eigensolver: 558.32 MiB
      Projections: 2.65 MiB
      Projectors: 2.55 MiB
      PW-descriptor: 14.58 MiB

Total number of cores used: 32
Parallelization over k-points: 8
Domain decomposition: 1 x 1 x 4
                      2 x 2 x 8 (xc only)

Number of atoms: 78
Number of atomic orbitals: 1158
Number of bands in calculation: 505
Number of valence electrons: 834
Bands to converge: occupied

... initialized

Initializing position-dependent things.

Density initialized from atomic densities
Creating initial wave functions:
  505 bands from LCAO basis set

      .------------------.  
     /|                  |  
    / |                  |  
   /  |                  |  
  /   |                  |  
 *    |                  |  
 |    |                  |  
 |    |                  |  
 |    |                  |  
 |    |                  |  
 |    |                  |  
 |    |                  |  
 |    |                  |  
 |   Cl  Cu    CCl   Cu  |  
 |    |Cu                |  
 |    | Cl               |  
 |  CuCu   CCu   CuCu    |  
 |    |  Cu  CuCu    Cu  |  
 |    |                  |  
 |  CuCuCu CCuCu CuCu    |  
 |    |  Cu    Cu  CuCu  |  
 |    |                  |  
 |Cu  Cu    CuCu   Cu    |  
 |  Cu|CuCuCu  CuCu  Cu  |  
 |    |                  |  
 |Cu  | Cu               |  
 |  CuCu CCuCu CuCuCuCu  |  
 |    |Cu                |  
 |    | Cu    Cu         |  
 |  CuCu CCuCu CuCuCuCu  |  
 |    |Cu    Cu    Cu    |  
 |    |                  |  
 |  CuCuCu CCuCu CuCu    |  
 |    |        Cl        |  
 |    |                  |  
 |    |                  |  
 |    |Cl         Cl     |  
 |    |                  |  
 |    |                  |  
 |    |                  |  
 |    |                  |  
 |    |                  |  
 |    .------------------.  
 |   /                  /   
 |  /                  /    
 | /                  /     
 |/                  /      
 *------------------*       

Positions:
   0 Cu     2.892104   -0.047662   10.028850    ( 0.0000,  0.0000,  0.0000)
   1 Cu     1.584107    1.850645   11.271875    ( 0.0000,  0.0000,  0.0000)
   2 Cu     4.203196    1.851297   11.251295    ( 0.0000,  0.0000,  0.0000)
   3 Cu     0.277579   -0.011970    9.960861    ( 0.0000,  0.0000,  0.0000)
   4 Cu     0.277264   -0.007472   12.605410    ( 0.0000,  0.0000,  0.0000)
   5 Cu     4.201978    1.850315   13.914155    ( 0.0000,  0.0000,  0.0000)
   6 Cu     1.573273    1.850537   13.909595    ( 0.0000,  0.0000,  0.0000)
   7 Cu     2.892443    0.008939   12.619148    ( 0.0000,  0.0000,  0.0000)
   8 Cu     2.893441    0.004875   15.236771    ( 0.0000,  0.0000,  0.0000)
   9 Cu     1.581461    1.851029   16.533722    ( 0.0000,  0.0000,  0.0000)
  10 Cu     4.202955    1.850537   16.538308    ( 0.0000,  0.0000,  0.0000)
  11 Cu     0.276778   -0.008068   15.231823    ( 0.0000,  0.0000,  0.0000)
  12 Cu     0.279478    0.001157   17.851911    ( 0.0000,  0.0000,  0.0000)
  13 Cu     4.203306    1.854998   19.153411    ( 0.0000,  0.0000,  0.0000)
  14 Cu     1.587047    1.855561   19.156958    ( 0.0000,  0.0000,  0.0000)
  15 Cu     2.893642    0.000071   17.857342    ( 0.0000,  0.0000,  0.0000)
  16 Cu     2.894393   -0.000155   20.471291    ( 0.0000,  0.0000,  0.0000)
  17 Cu     1.583783    1.859509   21.771611    ( 0.0000,  0.0000,  0.0000)
  18 Cu     4.204370    1.859960   21.767416    ( 0.0000,  0.0000,  0.0000)
  19 Cu     0.286616    0.001259   20.475438    ( 0.0000,  0.0000,  0.0000)
  20 Cu     0.261611   -0.000117   23.118326    ( 0.0000,  0.0000,  0.0000)
  21 Cu     4.204374    1.803776   24.355685    ( 0.0000,  0.0000,  0.0000)
  22 Cu     1.582120    1.804857   24.361409    ( 0.0000,  0.0000,  0.0000)
  23 Cu     2.893870    0.000863   23.062217    ( 0.0000,  0.0000,  0.0000)
  24 Cu     2.892562    3.747686   10.037572    ( 0.0000,  0.0000,  0.0000)
  25 Cu     1.569421    5.550432   11.274472    ( 0.0000,  0.0000,  0.0000)
  26 Cu     4.203052    5.550636   11.331094    ( 0.0000,  0.0000,  0.0000)
  27 Cu     0.276263    3.712417    9.959721    ( 0.0000,  0.0000,  0.0000)
  28 Cu     0.276785    3.708337   12.604172    ( 0.0000,  0.0000,  0.0000)
  29 Cu     4.202487    5.551658   13.921948    ( 0.0000,  0.0000,  0.0000)
  30 Cu     1.595655    5.551101   13.918125    ( 0.0000,  0.0000,  0.0000)
  31 Cu     2.892569    3.691580   12.625797    ( 0.0000,  0.0000,  0.0000)
  32 Cu     2.893538    3.696527   15.239685    ( 0.0000,  0.0000,  0.0000)
  33 Cu     1.587932    5.551647   16.543386    ( 0.0000,  0.0000,  0.0000)
  34 Cu     4.203146    5.551410   16.535808    ( 0.0000,  0.0000,  0.0000)
  35 Cu     0.279441    3.709166   15.232416    ( 0.0000,  0.0000,  0.0000)
  36 Cu     0.273762    3.699867   17.861814    ( 0.0000,  0.0000,  0.0000)
  37 Cu     4.203395    5.546598   19.156404    ( 0.0000,  0.0000,  0.0000)
  38 Cu     1.584582    5.546923   19.156959    ( 0.0000,  0.0000,  0.0000)
  39 Cu     2.893839    3.700983   17.854747    ( 0.0000,  0.0000,  0.0000)
  40 Cu     2.894886    3.701180   20.478996    ( 0.0000,  0.0000,  0.0000)
  41 Cu     1.583558    5.542233   21.769422    ( 0.0000,  0.0000,  0.0000)
  42 Cu     4.204482    5.542521   21.774097    ( 0.0000,  0.0000,  0.0000)
  43 Cu     0.264581    3.699852   20.484128    ( 0.0000,  0.0000,  0.0000)
  44 Cu     0.274593    3.700974   23.121525    ( 0.0000,  0.0000,  0.0000)
  45 Cu     4.204842    5.599199   24.364427    ( 0.0000,  0.0000,  0.0000)
  46 Cu     1.584574    5.598979   24.357956    ( 0.0000,  0.0000,  0.0000)
  47 Cu     2.893764    3.700203   23.141961    ( 0.0000,  0.0000,  0.0000)
  48 Cu     6.822340    1.850523   11.271711    ( 0.0000,  0.0000,  0.0000)
  49 Cu     5.512282   -0.047506   10.035330    ( 0.0000,  0.0000,  0.0000)
  50 Cu     5.513409    0.009241   12.623796    ( 0.0000,  0.0000,  0.0000)
  51 Cu     6.832230    1.851661   13.909087    ( 0.0000,  0.0000,  0.0000)
  52 Cu     6.822976    1.851625   16.531318    ( 0.0000,  0.0000,  0.0000)
  53 Cu     5.512231    0.004541   15.236144    ( 0.0000,  0.0000,  0.0000)
  54 Cu     5.508830   -0.000166   17.849666    ( 0.0000,  0.0000,  0.0000)
  55 Cu     6.817387    1.842212   19.160744    ( 0.0000,  0.0000,  0.0000)
  56 Cu     6.820139    1.843119   21.789059    ( 0.0000,  0.0000,  0.0000)
  57 Cu     5.501160    0.000395   20.475049    ( 0.0000,  0.0000,  0.0000)
  58 Cu     5.527511    0.001065   23.118763    ( 0.0000,  0.0000,  0.0000)
  59 Cu     6.820656    1.839026   24.433513    ( 0.0000,  0.0000,  0.0000)
  60 Cu     6.835286    5.551622   11.274925    ( 0.0000,  0.0000,  0.0000)
  61 Cu     5.514750    3.746678   10.031867    ( 0.0000,  0.0000,  0.0000)
  62 Cu     5.513173    3.692013   12.621614    ( 0.0000,  0.0000,  0.0000)
  63 Cu     6.810333    5.550225   13.917692    ( 0.0000,  0.0000,  0.0000)
  64 Cu     6.817347    5.550350   16.541133    ( 0.0000,  0.0000,  0.0000)
  65 Cu     5.509761    3.695975   15.236175    ( 0.0000,  0.0000,  0.0000)
  66 Cu     5.515392    3.700491   17.859401    ( 0.0000,  0.0000,  0.0000)
  67 Cu     6.820048    5.559689   19.161290    ( 0.0000,  0.0000,  0.0000)
  68 Cu     6.819656    5.559021   21.787807    ( 0.0000,  0.0000,  0.0000)
  69 Cu     5.523672    3.700967   20.483599    ( 0.0000,  0.0000,  0.0000)
  70 Cu     5.512846    3.700856   23.121401    ( 0.0000,  0.0000,  0.0000)
  71 Cu     6.819345    5.563533   24.432374    ( 0.0000,  0.0000,  0.0000)
  72 Cl     0.621315    3.708189   26.157691    ( 0.0000,  0.0000,  0.0000)
  73 Cl     5.172041    3.697820   26.156547    ( 0.0000,  0.0000,  0.0000)
  74 Cl     2.892581    0.001427   26.126583    ( 0.0000,  0.0000,  0.0000)
  75 Cl     6.475057    1.843327    8.235543    ( 0.0000,  0.0000,  0.0000)
  76 Cl     1.924832    1.853671    8.236708    ( 0.0000,  0.0000,  0.0000)
  77 Cl     4.204255    5.550077    8.266563    ( 0.0000,  0.0000,  0.0000)

Unit cell:
           periodic     x           y           z      points  spacing
  1. axis:    yes    7.851007    0.000000    0.000000    45     0.1745
  2. axis:    yes    0.000000    7.402000    0.000000    42     0.1762
  3. axis:    yes    0.000000    0.000000   34.393512   196     0.1755

  Lengths:   7.851007   7.402000  34.393512
  Angles:   90.000000  90.000000  90.000000

Effective grid spacing dv^(1/3) = 0.1754

     iter     time        total  log10-change:
                         energy  eigst   dens
iter:   1 23:11:02 -5990.636607
iter:   2 23:12:33 -7234.335348  +1.56  -0.83
iter:   3 23:13:46 -5848.297712  +1.58  -0.58
iter:   4 23:15:06 -5815.870463  -0.24  -1.06
iter:   5 23:16:19 -6145.567786  -0.81  -1.10
iter:   6 23:17:47 -6012.929264  -0.53  -0.89
iter:   7 23:19:17 -5904.748824  +0.21  -1.00
iter:   8 23:20:49 -6034.425938  +0.48  -1.12
iter:   9 23:22:26 -5693.168283  -0.75  -1.02
iter:  10 23:23:39 -5693.055684  -2.14  -1.52
iter:  11 23:24:59 -5716.913623  -1.85  -1.53
iter:  12 23:26:13 -5688.201776  -1.53  -1.43
iter:  13 23:27:26 -5683.594375  -2.06  -1.56
iter:  14 23:28:41 -5689.960548  -1.19  -1.61
iter:  15 23:29:53 -5680.735649  -2.51  -1.66
iter:  16 23:31:06 -5684.153377  -2.05  -1.79
iter:  17 23:32:19 -5680.836070  -1.58  -1.71
iter:  18 23:33:34 -5674.123542  -2.72  -1.89
iter:  19 23:34:52 -5674.129495  -2.90  -2.19
iter:  20 23:36:31 -5673.653205  -3.50  -2.23
iter:  21 23:37:52 -5673.442126  -2.81  -2.35
iter:  22 23:39:05 -5673.512910c -3.03  -2.43
iter:  23 23:40:18 -5673.492832c -3.54  -2.51
iter:  24 23:41:31 -5673.404664c -2.86  -2.56
iter:  25 23:42:43 -5673.370527c -4.58  -2.95
iter:  26 23:43:56 -5673.321367c -3.75  -3.03
iter:  27 23:45:21 -5673.314167c -4.11  -3.13
iter:  28 23:46:50 -5673.315235c -4.86  -3.27
iter:  29 23:48:04 -5673.320227c -5.15  -3.37
iter:  30 23:49:19 -5673.313427c -5.43  -3.29
iter:  31 23:50:36 -5673.311735c -5.20  -3.56
iter:  32 23:52:06 -5673.312339c -5.34  -3.62
iter:  33 23:53:20 -5673.310587c -5.26  -3.60
iter:  34 23:54:33 -5673.310660c -6.09  -3.97
iter:  35 23:55:47 -5673.310206c -6.13  -3.91
iter:  36 23:57:00 -5673.310235c -7.09  -4.17c
iter:  37 23:58:13 -5673.310241c -6.58  -4.22c
iter:  38 23:59:26 -5673.310285c -6.57  -4.30c
iter:  39 00:00:39 -5673.310261c -7.41c -4.43c

Converged after 39 iterations.

Dipole moment: (-76.896066, 3.223784, 0.000509) |e|*Ang

Energy contributions relative to reference atoms: (reference = -3316874.228935)

Kinetic:       +535.603404
Potential:     -595.788798
External:        +0.000000
XC:            -5611.738830
Entropy (-ST):   -0.718559
Local:           -1.026757
--------------------------
Free energy:   -5673.669540
Extrapolated:  -5673.310261

Showing only first 2 kpts
 Kpt  Band  Eigenvalues  Occupancy
  0   415      0.27392    1.16372
  0   416      0.33664    0.85269
  0   417      0.45569    0.36865
  0   418      0.47271    0.32021

  1   415     -0.19612    1.98702
  1   416      0.01550    1.89713
  1   417      0.04734    1.86124
  1   418      0.22188    1.40148


Fermi level: 0.30696

No gap

Forces in eV/Ang:
  0 Cu   -0.02261    0.17760   -0.53952
  1 Cu    0.06223    0.00014    0.04164
  2 Cu   -0.00012   -0.00420    0.24760
  3 Cu   -0.00158    0.18885   -0.08660
  4 Cu   -0.00095    0.06297   -0.20914
  5 Cu    0.00150   -0.00196    0.10038
  6 Cu    0.06034   -0.00143    0.05410
  7 Cu    0.01679   -0.01883   -0.18033
  8 Cu    0.00164   -0.01044   -0.07587
  9 Cu    0.00263    0.00434    0.06103
 10 Cu   -0.00383    0.00640    0.07755
 11 Cu    0.00358    0.01323   -0.09303
 12 Cu   -0.00459   -0.00490   -0.06607
 13 Cu   -0.00199   -0.00703    0.10176
 14 Cu   -0.00649   -0.00996    0.07496
 15 Cu    0.00455    0.00641   -0.06703
 16 Cu    0.00244   -0.00079   -0.12050
 17 Cu    0.01972   -0.01763    0.19462
 18 Cu   -0.01331   -0.01999    0.21208
 19 Cu   -0.06066   -0.00225   -0.08590
 20 Cu   -0.10832    0.00087   -0.05624
 21 Cu    0.02367    0.17900    0.56391
 22 Cu   -0.00847    0.17629    0.54984
 23 Cu    0.00310    0.00035   -0.02858
 24 Cu   -0.02442   -0.17891   -0.55907
 25 Cu   -0.10502    0.00499    0.06013
 26 Cu   -0.00284   -0.00031    0.03237
 27 Cu    0.01509   -0.18760   -0.08615
 28 Cu    0.00703   -0.06384   -0.20019
 29 Cu   -0.00209    0.00079    0.11755
 30 Cu   -0.05885    0.00442    0.07890
 31 Cu    0.01352    0.01969   -0.21284
 32 Cu    0.00220    0.00688   -0.10314
 33 Cu   -0.00092   -0.00644    0.05314
 34 Cu   -0.00424   -0.00626    0.06591
 35 Cu   -0.00923   -0.01354   -0.07819
 36 Cu   -0.00238    0.00579   -0.07429
 37 Cu   -0.00143    0.01060    0.07463
 38 Cu    0.00528    0.00759    0.09119
 39 Cu    0.00410   -0.00655   -0.07841
 40 Cu   -0.00118    0.00196   -0.10400
 41 Cu    0.01567    0.01948    0.20642
 42 Cu   -0.01657    0.01913    0.17953
 43 Cu    0.06024    0.00219   -0.06033
 44 Cu    0.06507    0.00345   -0.03688
 45 Cu    0.02189   -0.17765    0.54443
 46 Cu   -0.02521   -0.18439    0.55850
 47 Cu    0.00044    0.00415   -0.24417
 48 Cu   -0.06470   -0.00333    0.04188
 49 Cu    0.02475    0.18460   -0.55399
 50 Cu   -0.01514   -0.01921   -0.20697
 51 Cu   -0.05975   -0.00225    0.05751
 52 Cu    0.00274   -0.00584    0.07351
 53 Cu   -0.00477   -0.00741   -0.09216
 54 Cu    0.00136    0.00658   -0.05369
 55 Cu    0.00951    0.01381    0.07680
 56 Cu   -0.00665    0.06437    0.19878
 57 Cu    0.05963   -0.00441   -0.08186
 58 Cu    0.10547   -0.00495   -0.05714
 59 Cu   -0.01565    0.18905    0.09064
 60 Cu    0.10872   -0.00098    0.05906
 61 Cu    0.00814   -0.17651   -0.54527
 62 Cu   -0.01910    0.01738   -0.19520
 63 Cu    0.06054    0.00233    0.08298
 64 Cu    0.00478    0.00493    0.06539
 65 Cu    0.00705    0.00979   -0.07601
 66 Cu   -0.00233   -0.00449   -0.06167
 67 Cu   -0.00326   -0.01351    0.09174
 68 Cu    0.00143   -0.06352    0.20780
 69 Cu   -0.06020    0.00143   -0.05675
 70 Cu   -0.06196   -0.00018   -0.03661
 71 Cu    0.00115   -0.19031    0.09102
 72 Cl    0.45886    0.00159   -1.01390
 73 Cl   -0.46060    0.00600   -1.01470
 74 Cl   -0.00490   -0.00599   -0.83839
 75 Cl   -0.45918   -0.00152    1.01168
 76 Cl    0.46062   -0.00622    1.01238
 77 Cl    0.00496    0.00621    0.83831

System changes: positions 

Initializing position-dependent things.

Density initialized from wave functions
      .------------------.  
     /|                  |  
    / |                  |  
   /  |                  |  
  /   |                  |  
 *    |                  |  
 |    |                  |  
 |    |                  |  
 |    |                  |  
 |    |                  |  
 |    |                  |  
 |    |                  |  
 |    |                  |  
 |   Cl  Cu    CCl   Cu  |  
 |    |Cu                |  
 |    | Cl               |  
 |  CuCu   CCu   CuCu    |  
 |    |  Cu  CuCu  CuCu  |  
 |    |                  |  
 |  CuCuCu  CuCu CuCu    |  
 |    |  CuCu  Cu    Cu  |  
 |    |                  |  
 |Cu  Cu    Cu     Cu    |  
 |  Cu|CuCuCu  CuCu  Cu  |  
 |    |                  |  
 |Cu  | Cu    Cu         |  
 |  CuCu CuCCu CuCuCuCu  |  
 |    |Cu                |  
 |    | Cu    Cu         |  
 |  CuCu CCuCu CuCuCuCu  |  
 |    |      Cu    Cu    |  
 |    |                  |  
 |  CuCuCu CCuCu CuCu    |  
 |    |        Cl        |  
 |    |                  |  
 |Cu  |                  |  
 |    |Cl         Cl     |  
 |    |                  |  
 |    |                  |  
 |    |                  |  
 |    |                  |  
 |    |                  |  
 |    .------------------.  
 |   /                  /   
 |  /                  /    
 | /                  /     
 |/                  /      
 *------------------*       

Positions:
   0 Cu     2.889843   -0.029902    9.974898    ( 0.0000,  0.0000,  0.0000)
   1 Cu     1.590330    1.850659   11.276039    ( 0.0000,  0.0000,  0.0000)
   2 Cu     4.203184    1.850877   11.276055    ( 0.0000,  0.0000,  0.0000)
   3 Cu     0.277421    0.006915    9.952201    ( 0.0000,  0.0000,  0.0000)
   4 Cu     0.277169   -0.001175   12.584496    ( 0.0000,  0.0000,  0.0000)
   5 Cu     4.202128    1.850119   13.924193    ( 0.0000,  0.0000,  0.0000)
   6 Cu     1.579307    1.850394   13.915005    ( 0.0000,  0.0000,  0.0000)
   7 Cu     2.894122    0.007056   12.601115    ( 0.0000,  0.0000,  0.0000)
   8 Cu     2.893605    0.003831   15.229184    ( 0.0000,  0.0000,  0.0000)
   9 Cu     1.581724    1.851463   16.539825    ( 0.0000,  0.0000,  0.0000)
  10 Cu     4.202572    1.851177   16.546063    ( 0.0000,  0.0000,  0.0000)
  11 Cu     0.277136   -0.006745   15.222520    ( 0.0000,  0.0000,  0.0000)
  12 Cu     0.279019    0.000667   17.845304    ( 0.0000,  0.0000,  0.0000)
  13 Cu     4.203107    1.854295   19.163587    ( 0.0000,  0.0000,  0.0000)
  14 Cu     1.586398    1.854565   19.164454    ( 0.0000,  0.0000,  0.0000)
  15 Cu     2.894097    0.000712   17.850639    ( 0.0000,  0.0000,  0.0000)
  16 Cu     2.894637   -0.000234   20.459241    ( 0.0000,  0.0000,  0.0000)
  17 Cu     1.585755    1.857746   21.791073    ( 0.0000,  0.0000,  0.0000)
  18 Cu     4.203039    1.857961   21.788624    ( 0.0000,  0.0000,  0.0000)
  19 Cu     0.280550    0.001034   20.466848    ( 0.0000,  0.0000,  0.0000)
  20 Cu     0.250779   -0.000030   23.112702    ( 0.0000,  0.0000,  0.0000)
  21 Cu     4.206741    1.821676   24.412076    ( 0.0000,  0.0000,  0.0000)
  22 Cu     1.581273    1.822486   24.416393    ( 0.0000,  0.0000,  0.0000)
  23 Cu     2.894180    0.000898   23.059359    ( 0.0000,  0.0000,  0.0000)
  24 Cu     2.890120    3.729795    9.981665    ( 0.0000,  0.0000,  0.0000)
  25 Cu     1.558919    5.550931   11.280485    ( 0.0000,  0.0000,  0.0000)
  26 Cu     4.202768    5.550605   11.334331    ( 0.0000,  0.0000,  0.0000)
  27 Cu     0.277772    3.693657    9.951106    ( 0.0000,  0.0000,  0.0000)
  28 Cu     0.277488    3.701953   12.584153    ( 0.0000,  0.0000,  0.0000)
  29 Cu     4.202278    5.551737   13.933703    ( 0.0000,  0.0000,  0.0000)
  30 Cu     1.589770    5.551543   13.926015    ( 0.0000,  0.0000,  0.0000)
  31 Cu     2.893921    3.693549   12.604513    ( 0.0000,  0.0000,  0.0000)
  32 Cu     2.893758    3.697215   15.229371    ( 0.0000,  0.0000,  0.0000)
  33 Cu     1.587840    5.551003   16.548700    ( 0.0000,  0.0000,  0.0000)
  34 Cu     4.202722    5.550784   16.542399    ( 0.0000,  0.0000,  0.0000)
  35 Cu     0.278518    3.707812   15.224597    ( 0.0000,  0.0000,  0.0000)
  36 Cu     0.273524    3.700446   17.854385    ( 0.0000,  0.0000,  0.0000)
  37 Cu     4.203252    5.547658   19.163867    ( 0.0000,  0.0000,  0.0000)
  38 Cu     1.585110    5.547682   19.166078    ( 0.0000,  0.0000,  0.0000)
  39 Cu     2.894249    3.700328   17.846906    ( 0.0000,  0.0000,  0.0000)
  40 Cu     2.894768    3.701376   20.468596    ( 0.0000,  0.0000,  0.0000)
  41 Cu     1.585125    5.544181   21.790064    ( 0.0000,  0.0000,  0.0000)
  42 Cu     4.202825    5.544434   21.792050    ( 0.0000,  0.0000,  0.0000)
  43 Cu     0.270605    3.700071   20.478095    ( 0.0000,  0.0000,  0.0000)
  44 Cu     0.281100    3.701319   23.117837    ( 0.0000,  0.0000,  0.0000)
  45 Cu     4.207031    5.581434   24.418870    ( 0.0000,  0.0000,  0.0000)
  46 Cu     1.582053    5.580540   24.413806    ( 0.0000,  0.0000,  0.0000)
  47 Cu     2.893808    3.700618   23.117544    ( 0.0000,  0.0000,  0.0000)
  48 Cu     6.815870    1.850190   11.275899    ( 0.0000,  0.0000,  0.0000)
  49 Cu     5.514757   -0.029046    9.979931    ( 0.0000,  0.0000,  0.0000)
  50 Cu     5.511895    0.007320   12.603099    ( 0.0000,  0.0000,  0.0000)
  51 Cu     6.826255    1.851436   13.914838    ( 0.0000,  0.0000,  0.0000)
  52 Cu     6.823250    1.851041   16.538669    ( 0.0000,  0.0000,  0.0000)
  53 Cu     5.511754    0.003800   15.226928    ( 0.0000,  0.0000,  0.0000)
  54 Cu     5.508966    0.000492   17.844297    ( 0.0000,  0.0000,  0.0000)
  55 Cu     6.818338    1.843593   19.168424    ( 0.0000,  0.0000,  0.0000)
  56 Cu     6.819474    1.849556   21.808937    ( 0.0000,  0.0000,  0.0000)
  57 Cu     5.507123   -0.000046   20.466863    ( 0.0000,  0.0000,  0.0000)
  58 Cu     5.538058    0.000570   23.113049    ( 0.0000,  0.0000,  0.0000)
  59 Cu     6.819091    1.857931   24.442577    ( 0.0000,  0.0000,  0.0000)
  60 Cu     6.846158    5.551524   11.280831    ( 0.0000,  0.0000,  0.0000)
  61 Cu     5.515564    3.729027    9.977340    ( 0.0000,  0.0000,  0.0000)
  62 Cu     5.511263    3.693751   12.602094    ( 0.0000,  0.0000,  0.0000)
  63 Cu     6.816387    5.550458   13.925990    ( 0.0000,  0.0000,  0.0000)
  64 Cu     6.817825    5.550843   16.547672    ( 0.0000,  0.0000,  0.0000)
  65 Cu     5.510466    3.696954   15.228574    ( 0.0000,  0.0000,  0.0000)
  66 Cu     5.515159    3.700042   17.853234    ( 0.0000,  0.0000,  0.0000)
  67 Cu     6.819722    5.558338   19.170464    ( 0.0000,  0.0000,  0.0000)
  68 Cu     6.819799    5.552669   21.808587    ( 0.0000,  0.0000,  0.0000)
  69 Cu     5.517652    3.701110   20.477924    ( 0.0000,  0.0000,  0.0000)
  70 Cu     5.506650    3.700838   23.117740    ( 0.0000,  0.0000,  0.0000)
  71 Cu     6.819460    5.544502   24.441476    ( 0.0000,  0.0000,  0.0000)
  72 Cl     0.667201    3.708348   26.056301    ( 0.0000,  0.0000,  0.0000)
  73 Cl     5.125981    3.698420   26.055077    ( 0.0000,  0.0000,  0.0000)
  74 Cl     2.892091    0.000828   26.042744    ( 0.0000,  0.0000,  0.0000)
  75 Cl     6.429139    1.843175    8.336711    ( 0.0000,  0.0000,  0.0000)
  76 Cl     1.970894    1.853049    8.337946    ( 0.0000,  0.0000,  0.0000)
  77 Cl     4.204751    5.550698    8.350394    ( 0.0000,  0.0000,  0.0000)

Unit cell:
           periodic     x           y           z      points  spacing
  1. axis:    yes    7.851007    0.000000    0.000000    45     0.1745
  2. axis:    yes    0.000000    7.402000    0.000000    42     0.1762
  3. axis:    yes    0.000000    0.000000   34.393512   196     0.1755

  Lengths:   7.851007   7.402000  34.393512
  Angles:   90.000000  90.000000  90.000000

Effective grid spacing dv^(1/3) = 0.1754

     iter     time        total  log10-change:
                         energy  eigst   dens
iter:   1 00:02:59 -5683.506548  -1.76
iter:   2 00:04:13 -5682.331162  -1.54  -1.73
iter:   3 00:05:30 -5674.823502  -2.07  -1.89
iter:   4 00:06:43 -5674.955184  -3.17  -2.36
iter:   5 00:07:57 -5674.234035  -3.67  -2.35
iter:   6 00:09:13 -5674.166015  -3.27  -2.68
iter:   7 00:10:37 -5674.138195c -3.93  -2.85
iter:   8 00:12:15 -5674.120986c -4.12  -3.02
iter:   9 00:13:36 -5674.122705c -4.48  -3.24
iter:  10 00:14:52 -5674.117451c -4.77  -3.39
iter:  11 00:16:05 -5674.118463c -5.33  -3.54
iter:  12 00:17:23 -5674.125052c -5.15  -3.54
iter:  13 00:18:45 -5674.117579c -5.35  -3.35
iter:  14 00:19:59 -5674.116975c -5.92  -3.82
iter:  15 00:21:19 -5674.116825c -5.99  -3.92
iter:  16 00:22:33 -5674.116881c -6.04  -3.97
iter:  17 00:24:18 -5674.116872c -6.48  -4.14c
iter:  18 00:25:40 -5674.116828c -7.07  -4.21c
iter:  19 00:26:54 -5674.116776c -7.44c -4.22c

Converged after 19 iterations.

Dipole moment: (-75.921657, 1.256376, 0.000912) |e|*Ang

Energy contributions relative to reference atoms: (reference = -3316874.228935)

Kinetic:       +541.881686
Potential:     -601.217339
External:        +0.000000
XC:            -5613.462015
Entropy (-ST):   -0.711726
Local:           -0.963244
--------------------------
Free energy:   -5674.472639
Extrapolated:  -5674.116776

Showing only first 2 kpts
 Kpt  Band  Eigenvalues  Occupancy
  0   415      0.48121    1.15675
  0   416      0.55639    0.78555
  0   417      0.67320    0.33490
  0   418      0.68623    0.30014

  1   415      0.01003    1.98698
  1   416      0.21705    1.90125
  1   417      0.25614    1.85739
  1   418      0.42159    1.42694


Fermi level: 0.51282

No gap

Forces in eV/Ang:
  0 Cu   -0.02643    0.10467   -0.23794
  1 Cu    0.04423   -0.00140    0.08200
  2 Cu   -0.00140   -0.00180    0.15552
  3 Cu    0.00074    0.05480    0.05886
  4 Cu   -0.00099    0.05971   -0.09220
  5 Cu    0.00137    0.00016    0.03700
  6 Cu    0.03025    0.00003   -0.00656
  7 Cu    0.00558   -0.03973   -0.13391
  8 Cu   -0.00174   -0.00750   -0.04324
  9 Cu    0.00219    0.00255    0.01642
 10 Cu    0.00045    0.00339    0.02978
 11 Cu    0.00211    0.02209   -0.05628
 12 Cu   -0.00065   -0.00602   -0.02289
 13 Cu    0.00245   -0.00593    0.06590
 14 Cu   -0.00560   -0.00742    0.04538
 15 Cu    0.00077    0.00320   -0.02980
 16 Cu    0.00020    0.00083   -0.01696
 17 Cu    0.00523   -0.03991    0.14178
 18 Cu   -0.00362   -0.04049    0.15700
 19 Cu   -0.02688   -0.00096    0.00751
 20 Cu    0.01610    0.00232    0.06546
 21 Cu    0.02571    0.10280    0.25375
 22 Cu   -0.01845    0.10351    0.24042
 23 Cu    0.00170   -0.00089    0.07100
 24 Cu   -0.02621   -0.10322   -0.25536
 25 Cu    0.01842    0.00210   -0.06699
 26 Cu   -0.00142    0.00085   -0.07351
 27 Cu    0.00665   -0.05373    0.06122
 28 Cu    0.00221   -0.05954   -0.08549
 29 Cu    0.00032   -0.00083    0.01954
 30 Cu   -0.02782    0.00071   -0.00751
 31 Cu    0.00403    0.04046   -0.15651
 32 Cu   -0.00214    0.00586   -0.06485
 33 Cu   -0.00074   -0.00371    0.01702
 34 Cu   -0.00039   -0.00328    0.03029
 35 Cu   -0.00350   -0.02244   -0.05073
 36 Cu    0.00198    0.00567   -0.02324
 37 Cu    0.00208    0.00757    0.04384
 38 Cu    0.00022    0.00673    0.05173
 39 Cu   -0.00007   -0.00332   -0.02941
 40 Cu   -0.00089   -0.00017   -0.03419
 41 Cu    0.00430    0.04207    0.15072
 42 Cu   -0.00514    0.03973    0.13436
 43 Cu    0.03046    0.00098    0.00560
 44 Cu    0.04516   -0.00223   -0.08336
 45 Cu    0.02577   -0.10424    0.23628
 46 Cu   -0.02566   -0.10589    0.24864
 47 Cu    0.00151    0.00184   -0.15705
 48 Cu   -0.04482    0.00214    0.08106
 49 Cu    0.02541    0.10656   -0.25034
 50 Cu   -0.00430   -0.04209   -0.15036
 51 Cu   -0.02995   -0.00095   -0.00369
 52 Cu   -0.00148   -0.00559    0.02351
 53 Cu   -0.00000   -0.00664   -0.05097
 54 Cu    0.00100    0.00363   -0.01670
 55 Cu    0.00379    0.02261    0.05139
 56 Cu   -0.00184    0.05918    0.08634
 57 Cu    0.02805   -0.00070    0.00998
 58 Cu   -0.01791   -0.00213    0.06532
 59 Cu   -0.00689    0.05325   -0.06156
 60 Cu   -0.01608   -0.00224   -0.06712
 61 Cu    0.01801   -0.10421   -0.24208
 62 Cu   -0.00528    0.03992   -0.14143
 63 Cu    0.02746    0.00093   -0.00486
 64 Cu    0.00100    0.00596    0.02332
 65 Cu    0.00585    0.00731   -0.04463
 66 Cu   -0.00216   -0.00244   -0.01618
 67 Cu   -0.00180   -0.02227    0.05700
 68 Cu    0.00127   -0.05937    0.09303
 69 Cu   -0.03015   -0.00004    0.00839
 70 Cu   -0.04422    0.00144   -0.08439
 71 Cu   -0.00112   -0.05433   -0.05921
 72 Cl    0.36637    0.00070   -0.62669
 73 Cl   -0.36855    0.00563   -0.62729
 74 Cl   -0.00694   -0.00526   -0.49897
 75 Cl   -0.36631   -0.00070    0.62914
 76 Cl    0.36853   -0.00567    0.62965
 77 Cl    0.00692    0.00528    0.50109

System changes: positions 

Initializing position-dependent things.

Density initialized from wave functions
      .------------------.  
     /|                  |  
    / |                  |  
   /  |                  |  
  /   |                  |  
 *    |                  |  
 |    |                  |  
 |    |                  |  
 |    |                  |  
 |    |                  |  
 |    |                  |  
 |    |                  |  
 |    |                  |  
 |   Cl  Cu    CCl   Cu  |  
 |    |            Cu    |  
 |    | Cl               |  
 |  CuCu   CCu   CuCu    |  
 |    |  Cu  CuCu  CuCu  |  
 |    |                  |  
 |Cu  CuCu  Cu     Cu    |  
 |  Cu|  CuCu  CuCu  Cu  |  
 |    |                  |  
 |Cu  Cu    Cu     Cu    |  
 |  Cu|CuCuCu  CuCu  Cu  |  
 |    |                  |  
 |Cu  | Cu    Cu         |  
 |  CuCu CuCCu CuCuCuCu  |  
 |    |                  |  
 |    | Cu    Cu         |  
 |  CuCuCu CCu CuCuCuCu  |  
 |    |      Cu    Cu    |  
 |    |                  |  
 |CuCuCuCuCuCuCu CuCu    |  
 |    |        Cl        |  
 |    |                  |  
 |Cu  |Cl         Cl     |  
 |    |                  |  
 |    |                  |  
 |    |                  |  
 |    |                  |  
 |    |                  |  
 |    |                  |  
 |    .------------------.  
 |   /                  /   
 |  /                  /    
 | /                  /     
 |/                  /      
 *------------------*       

Positions:
   0 Cu     2.886844   -0.006348    9.903345    ( 0.0000,  0.0000,  0.0000)
   1 Cu     1.598584    1.850677   11.281561    ( 0.0000,  0.0000,  0.0000)
   2 Cu     4.203168    1.850320   11.308892    ( 0.0000,  0.0000,  0.0000)
   3 Cu     0.277213    0.031961    9.940715    ( 0.0000,  0.0000,  0.0000)
   4 Cu     0.277043    0.007175   12.556759    ( 0.0000,  0.0000,  0.0000)
   5 Cu     4.202327    1.849860   13.937506    ( 0.0000,  0.0000,  0.0000)
   6 Cu     1.587310    1.850205   13.922179    ( 0.0000,  0.0000,  0.0000)
   7 Cu     2.896348    0.004559   12.577199    ( 0.0000,  0.0000,  0.0000)
   8 Cu     2.893824    0.002446   15.219123    ( 0.0000,  0.0000,  0.0000)
   9 Cu     1.582073    1.852040   16.547919    ( 0.0000,  0.0000,  0.0000)
  10 Cu     4.202065    1.852026   16.556349    ( 0.0000,  0.0000,  0.0000)
  11 Cu     0.277610   -0.004991   15.210181    ( 0.0000,  0.0000,  0.0000)
  12 Cu     0.278410    0.000018   17.836541    ( 0.0000,  0.0000,  0.0000)
  13 Cu     4.202844    1.853363   19.177082    ( 0.0000,  0.0000,  0.0000)
  14 Cu     1.585537    1.853243   19.174395    ( 0.0000,  0.0000,  0.0000)
  15 Cu     2.894700    0.001561   17.841748    ( 0.0000,  0.0000,  0.0000)
  16 Cu     2.894961   -0.000338   20.443259    ( 0.0000,  0.0000,  0.0000)
  17 Cu     1.588371    1.855408   21.816883    ( 0.0000,  0.0000,  0.0000)
  18 Cu     4.201274    1.855309   21.816750    ( 0.0000,  0.0000,  0.0000)
  19 Cu     0.272506    0.000735   20.455456    ( 0.0000,  0.0000,  0.0000)
  20 Cu     0.236412    0.000085   23.105243    ( 0.0000,  0.0000,  0.0000)
  21 Cu     4.209880    1.845416   24.486865    ( 0.0000,  0.0000,  0.0000)
  22 Cu     1.580150    1.845866   24.489315    ( 0.0000,  0.0000,  0.0000)
  23 Cu     2.894590    0.000945   23.055569    ( 0.0000,  0.0000,  0.0000)
  24 Cu     2.886882    3.706066    9.907518    ( 0.0000,  0.0000,  0.0000)
  25 Cu     1.544990    5.551593   11.288461    ( 0.0000,  0.0000,  0.0000)
  26 Cu     4.202391    5.550563   11.338624    ( 0.0000,  0.0000,  0.0000)
  27 Cu     0.279774    3.668778    9.939680    ( 0.0000,  0.0000,  0.0000)
  28 Cu     0.278420    3.693487   12.557603    ( 0.0000,  0.0000,  0.0000)
  29 Cu     4.202001    5.551842   13.949294    ( 0.0000,  0.0000,  0.0000)
  30 Cu     1.581965    5.552128   13.936480    ( 0.0000,  0.0000,  0.0000)
  31 Cu     2.895713    3.696160   12.576286    ( 0.0000,  0.0000,  0.0000)
  32 Cu     2.894049    3.698126   15.215691    ( 0.0000,  0.0000,  0.0000)
  33 Cu     1.587717    5.550149   16.555748    ( 0.0000,  0.0000,  0.0000)
  34 Cu     4.202159    5.549954   16.551139    ( 0.0000,  0.0000,  0.0000)
  35 Cu     0.277294    3.706016   15.214227    ( 0.0000,  0.0000,  0.0000)
  36 Cu     0.273208    3.701214   17.844533    ( 0.0000,  0.0000,  0.0000)
  37 Cu     4.203062    5.549064   19.173764    ( 0.0000,  0.0000,  0.0000)
  38 Cu     1.585811    5.548688   19.178173    ( 0.0000,  0.0000,  0.0000)
  39 Cu     2.894793    3.699458   17.836506    ( 0.0000,  0.0000,  0.0000)
  40 Cu     2.894611    3.701635   20.454803    ( 0.0000,  0.0000,  0.0000)
  41 Cu     1.587203    5.546763   21.817440    ( 0.0000,  0.0000,  0.0000)
  42 Cu     4.200627    5.546970   21.815861    ( 0.0000,  0.0000,  0.0000)
  43 Cu     0.278595    3.700361   20.470094    ( 0.0000,  0.0000,  0.0000)
  44 Cu     0.289730    3.701777   23.112945    ( 0.0000,  0.0000,  0.0000)
  45 Cu     4.209933    5.557872   24.491075    ( 0.0000,  0.0000,  0.0000)
  46 Cu     1.578709    5.556086   24.487877    ( 0.0000,  0.0000,  0.0000)
  47 Cu     2.893867    3.701168   23.085161    ( 0.0000,  0.0000,  0.0000)
  48 Cu     6.807289    1.849748   11.281454    ( 0.0000,  0.0000,  0.0000)
  49 Cu     5.518038   -0.004563    9.906458    ( 0.0000,  0.0000,  0.0000)
  50 Cu     5.509886    0.004772   12.575650    ( 0.0000,  0.0000,  0.0000)
  51 Cu     6.818329    1.851138   13.922464    ( 0.0000,  0.0000,  0.0000)
  52 Cu     6.823612    1.850267   16.548418    ( 0.0000,  0.0000,  0.0000)
  53 Cu     5.511121    0.002817   15.214705    ( 0.0000,  0.0000,  0.0000)
  54 Cu     5.509147    0.001365   17.837177    ( 0.0000,  0.0000,  0.0000)
  55 Cu     6.819599    1.845426   19.178610    ( 0.0000,  0.0000,  0.0000)
  56 Cu     6.818592    1.858093   21.835300    ( 0.0000,  0.0000,  0.0000)
  57 Cu     5.515032   -0.000632   20.456006    ( 0.0000,  0.0000,  0.0000)
  58 Cu     5.552046   -0.000087   23.105471    ( 0.0000,  0.0000,  0.0000)
  59 Cu     6.817015    1.883004   24.454599    ( 0.0000,  0.0000,  0.0000)
  60 Cu     6.860577    5.551393   11.288663    ( 0.0000,  0.0000,  0.0000)
  61 Cu     5.516643    3.705616    9.905023    ( 0.0000,  0.0000,  0.0000)
  62 Cu     5.508731    3.696055   12.576205    ( 0.0000,  0.0000,  0.0000)
  63 Cu     6.824416    5.550767   13.936994    ( 0.0000,  0.0000,  0.0000)
  64 Cu     6.818459    5.551498   16.556344    ( 0.0000,  0.0000,  0.0000)
  65 Cu     5.511401    3.698252   15.218493    ( 0.0000,  0.0000,  0.0000)
  66 Cu     5.514849    3.699447   17.845055    ( 0.0000,  0.0000,  0.0000)
  67 Cu     6.819290    5.556545   19.182631    ( 0.0000,  0.0000,  0.0000)
  68 Cu     6.819988    5.544245   21.836147    ( 0.0000,  0.0000,  0.0000)
  69 Cu     5.509668    3.701299   20.470397    ( 0.0000,  0.0000,  0.0000)
  70 Cu     5.498432    3.700814   23.112885    ( 0.0000,  0.0000,  0.0000)
  71 Cu     6.819614    5.519262   24.453548    ( 0.0000,  0.0000,  0.0000)
  72 Cl     0.728057    3.708558   25.921832    ( 0.0000,  0.0000,  0.0000)
  73 Cl     5.064895    3.699215   25.920501    ( 0.0000,  0.0000,  0.0000)
  74 Cl     2.891442    0.000034   25.931552    ( 0.0000,  0.0000,  0.0000)
  75 Cl     6.368239    1.842973    8.470885    ( 0.0000,  0.0000,  0.0000)
  76 Cl     2.031983    1.852224    8.472214    ( 0.0000,  0.0000,  0.0000)
  77 Cl     4.205409    5.551522    8.461575    ( 0.0000,  0.0000,  0.0000)

Unit cell:
           periodic     x           y           z      points  spacing
  1. axis:    yes    7.851007    0.000000    0.000000    45     0.1745
  2. axis:    yes    0.000000    7.402000    0.000000    42     0.1762
  3. axis:    yes    0.000000    0.000000   34.393512   196     0.1755

  Lengths:   7.851007   7.402000  34.393512
  Angles:   90.000000  90.000000  90.000000

Effective grid spacing dv^(1/3) = 0.1754

     iter     time        total  log10-change:
                         energy  eigst   dens
iter:   1 00:28:54 -5688.411084  -1.54
iter:   2 00:30:19 -5687.350485  -1.35  -1.66
iter:   3 00:31:32 -5676.676398  -1.84  -1.80
iter:   4 00:32:48 -5677.946500  -2.54  -2.13
iter:   5 00:34:02 -5674.725600  -3.07  -2.05
iter:   6 00:35:14 -5674.511008  -3.19  -2.54
iter:   7 00:36:27 -5674.499090c -3.42  -2.75
iter:   8 00:37:40 -5674.468267c -3.79  -2.81
iter:   9 00:38:54 -5674.461533c -4.37  -3.08
iter:  10 00:40:23 -5674.455455c -4.79  -3.22
iter:  11 00:41:39 -5674.459177c -4.34  -3.31
iter:  12 00:42:57 -5674.462337c -4.84  -3.38
iter:  13 00:44:09 -5674.454820c -5.04  -3.29
iter:  14 00:45:21 -5674.452021c -5.05  -3.61
iter:  15 00:46:33 -5674.451975c -5.74  -3.78
iter:  16 00:47:54 -5674.451869c -6.35  -3.92
iter:  17 00:49:09 -5674.451684c -6.16  -4.08c
iter:  18 00:50:22 -5674.451715c -6.33  -4.14c
iter:  19 00:51:34 -5674.451704c -6.80  -4.16c
iter:  20 00:53:07 -5674.451699c -6.88  -4.24c
iter:  21 00:54:19 -5674.451691c -6.77  -4.32c
iter:  22 00:55:41 -5674.451668c -6.70  -4.43c
iter:  23 00:56:52 -5674.451672c -7.21  -4.60c
iter:  24 00:58:06 -5674.451655c -7.50c -4.74c

Converged after 24 iterations.

Dipole moment: (-74.722643, -1.384396, 0.001883) |e|*Ang

Energy contributions relative to reference atoms: (reference = -3316874.228935)

Kinetic:       +552.571847
Potential:     -609.271303
External:        +0.000000
XC:            -5616.310844
Entropy (-ST):   -0.706637
Local:           -1.088037
--------------------------
Free energy:   -5674.804974
Extrapolated:  -5674.451655

Showing only first 2 kpts
 Kpt  Band  Eigenvalues  Occupancy
  0   415      0.75258    1.15974
  0   416      0.84846    0.69203
  0   417      0.95547    0.30719
  0   418      0.97008    0.27110

  1   415      0.29462    1.98524
  1   416      0.48031    1.90913
  1   417      0.53119    1.85327
  1   418      0.68464    1.46275


Fermi level: 0.78480

No gap

Forces in eV/Ang:
  0 Cu   -0.01268   -0.03351    0.17457
  1 Cu    0.01192   -0.00430    0.16519
  2 Cu   -0.00242    0.00046    0.03882
  3 Cu    0.00403   -0.13813    0.23380
  4 Cu   -0.00112    0.06159    0.05613
  5 Cu    0.00166    0.00276   -0.04449
  6 Cu   -0.01099    0.00169   -0.08456
  7 Cu   -0.00923   -0.06674   -0.06859
  8 Cu   -0.00805   -0.00400    0.01271
  9 Cu    0.00042   -0.00024   -0.04234
 10 Cu    0.00661   -0.00088   -0.03188
 11 Cu   -0.00029    0.03780    0.00127
 12 Cu    0.00429   -0.00759    0.03082
 13 Cu    0.01023   -0.00491    0.00283
 14 Cu   -0.00611   -0.00458   -0.00798
 15 Cu   -0.00449   -0.00116    0.01536
 16 Cu   -0.00308    0.00288    0.11560
 17 Cu   -0.01345   -0.06796    0.07005
 18 Cu    0.00934   -0.06650    0.08167
 19 Cu    0.01908    0.00086    0.11900
 20 Cu    0.16108    0.00482    0.21304
 21 Cu    0.00851   -0.03858   -0.16705
 22 Cu   -0.01187   -0.03111   -0.17690
 23 Cu   -0.00035   -0.00248    0.16346
 24 Cu   -0.00916    0.03729    0.16191
 25 Cu    0.16254   -0.00001   -0.21713
 26 Cu    0.00055    0.00240   -0.16710
 27 Cu   -0.00486    0.13862    0.23837
 28 Cu   -0.00389   -0.06010    0.05908
 29 Cu    0.00370   -0.00283   -0.11006
 30 Cu    0.01463   -0.00400   -0.11501
 31 Cu   -0.00864    0.06740   -0.07923
 32 Cu   -0.00973    0.00500   -0.00136
 33 Cu   -0.00105    0.00013   -0.03000
 34 Cu    0.00498    0.00096   -0.01468
 35 Cu    0.00414   -0.03779   -0.00542
 36 Cu    0.00676    0.00569    0.04175
 37 Cu    0.00856    0.00390   -0.01205
 38 Cu   -0.00880    0.00606   -0.01491
 39 Cu   -0.00603    0.00107    0.03207
 40 Cu   -0.00099   -0.00280    0.05146
 41 Cu   -0.01086    0.07121    0.07506
 42 Cu    0.01000    0.06576    0.07096
 43 Cu   -0.00995   -0.00083    0.08736
 44 Cu    0.01068   -0.01028   -0.16781
 45 Cu    0.01197    0.03478   -0.17985
 46 Cu   -0.00505    0.03986   -0.17352
 47 Cu    0.00273   -0.00036   -0.04113
 48 Cu   -0.01014    0.01005    0.16236
 49 Cu    0.00574   -0.03849    0.16854
 50 Cu    0.01068   -0.07215   -0.07295
 51 Cu    0.01074    0.00084   -0.08219
 52 Cu   -0.00611   -0.00567   -0.04147
 53 Cu    0.00882   -0.00612    0.01570
 54 Cu    0.00120   -0.00031    0.02988
 55 Cu   -0.00370    0.03805    0.00648
 56 Cu    0.00454    0.06025   -0.05537
 57 Cu   -0.01464    0.00406    0.11998
 58 Cu   -0.16182   -0.00006    0.21592
 59 Cu    0.00487   -0.14173   -0.24120
 60 Cu   -0.16167   -0.00464   -0.21425
 61 Cu    0.01218    0.02981    0.17192
 62 Cu    0.01307    0.06892   -0.06795
 63 Cu   -0.01798   -0.00089   -0.11371
 64 Cu   -0.00369    0.00759   -0.03069
 65 Cu    0.00604    0.00460    0.00883
 66 Cu   -0.00053    0.00043    0.04235
 67 Cu    0.00068   -0.03808   -0.00024
 68 Cu    0.00155   -0.06174   -0.05246
 69 Cu    0.01100   -0.00175    0.08956
 70 Cu   -0.01239    0.00438   -0.17075
 71 Cu   -0.00433    0.14129   -0.23657
 72 Cl    0.21721   -0.00729    0.06367
 73 Cl   -0.22179    0.00605    0.06156
 74 Cl   -0.00901   -0.00482   -0.00321
 75 Cl   -0.21706    0.00725   -0.06229
 76 Cl    0.22182   -0.00604   -0.06005
 77 Cl    0.00909    0.00484    0.00370

System changes: positions 

Initializing position-dependent things.

Density initialized from wave functions
      .------------------.  
     /|                  |  
    / |                  |  
   /  |                  |  
  /   |                  |  
 *    |                  |  
 |    |                  |  
 |    |                  |  
 |    |                  |  
 |    |                  |  
 |    |      Cl          |  
 |    |                  |  
 |    |                  |  
 |   Cl  Cu    CCl   Cu  |  
 |    |            Cu    |  
 |    |                  |  
 |  CuCu   CCu   CuCu    |  
 |    |  Cu  CuCu  CuCu  |  
 |    |                  |  
 |CuCuCuCu  Cu   CuCu    |  
 |    |CuCuCu  Cu    Cu  |  
 |    |                  |  
 |Cu  Cu    Cu     Cu    |  
 |  Cu|CuCuCu  CuCu  Cu  |  
 |    |                  |  
 |    | Cu    Cu         |  
 |  CuCu CuCCu CuCuCuCu  |  
 |    |      Cu    Cu    |  
 |    | Cu    Cu         |  
 |  CuCu CuCCu CuCuCuCu  |  
 |    |      Cu    Cu    |  
 |    |                  |  
 |CuCuCu  CuCu   CuCu    |  
 |    |        Cl        |  
 |    |                  |  
 |Cu  |Cl         Cl     |  
 |    |                  |  
 |    |                  |  
 |    |                  |  
 |    |                  |  
 |    |                  |  
 |    |                  |  
 |    .------------------.  
 |   /                  /   
 |  /                  /    
 | /                  /     
 |/                  /      
 *------------------*       

Positions:
   0 Cu     2.885685   -0.009423    9.919339    ( 0.0000,  0.0000,  0.0000)
   1 Cu     1.599671    1.850283   11.296667    ( 0.0000,  0.0000,  0.0000)
   2 Cu     4.202947    1.850362   11.312429    ( 0.0000,  0.0000,  0.0000)
   3 Cu     0.277581    0.019317    9.962101    ( 0.0000,  0.0000,  0.0000)
   4 Cu     0.276940    0.012805   12.561904    ( 0.0000,  0.0000,  0.0000)
   5 Cu     4.202479    1.850112   13.933432    ( 0.0000,  0.0000,  0.0000)
   6 Cu     1.586301    1.850360   13.914443    ( 0.0000,  0.0000,  0.0000)
   7 Cu     2.895503   -0.001544   12.570936    ( 0.0000,  0.0000,  0.0000)
   8 Cu     2.893087    0.002081   15.220289    ( 0.0000,  0.0000,  0.0000)
   9 Cu     1.582111    1.852017   16.544044    ( 0.0000,  0.0000,  0.0000)
  10 Cu     4.202669    1.851945   16.553430    ( 0.0000,  0.0000,  0.0000)
  11 Cu     0.277583   -0.001535   15.210302    ( 0.0000,  0.0000,  0.0000)
  12 Cu     0.278803   -0.000676   17.839363    ( 0.0000,  0.0000,  0.0000)
  13 Cu     4.203780    1.852914   19.177335    ( 0.0000,  0.0000,  0.0000)
  14 Cu     1.584978    1.852825   19.173660    ( 0.0000,  0.0000,  0.0000)
  15 Cu     2.894289    0.001455   17.843156    ( 0.0000,  0.0000,  0.0000)
  16 Cu     2.894680   -0.000075   20.453837    ( 0.0000,  0.0000,  0.0000)
  17 Cu     1.587140    1.849193   21.823280    ( 0.0000,  0.0000,  0.0000)
  18 Cu     4.202129    1.849228   21.824208    ( 0.0000,  0.0000,  0.0000)
  19 Cu     0.274254    0.000814   20.466343    ( 0.0000,  0.0000,  0.0000)
  20 Cu     0.251149    0.000526   23.124730    ( 0.0000,  0.0000,  0.0000)
  21 Cu     4.210657    1.841878   24.471557    ( 0.0000,  0.0000,  0.0000)
  22 Cu     1.579065    1.843012   24.473107    ( 0.0000,  0.0000,  0.0000)
  23 Cu     2.894558    0.000718   23.070519    ( 0.0000,  0.0000,  0.0000)
  24 Cu     2.886046    3.709486    9.922356    ( 0.0000,  0.0000,  0.0000)
  25 Cu     1.559861    5.551593   11.268600    ( 0.0000,  0.0000,  0.0000)
  26 Cu     4.202441    5.550783   11.323341    ( 0.0000,  0.0000,  0.0000)
  27 Cu     0.279329    3.681465    9.961484    ( 0.0000,  0.0000,  0.0000)
  28 Cu     0.278064    3.687994   12.563017    ( 0.0000,  0.0000,  0.0000)
  29 Cu     4.202339    5.551583   13.939222    ( 0.0000,  0.0000,  0.0000)
  30 Cu     1.583306    5.551762   13.925958    ( 0.0000,  0.0000,  0.0000)
  31 Cu     2.894923    3.702324   12.569052    ( 0.0000,  0.0000,  0.0000)
  32 Cu     2.893159    3.698583   15.215573    ( 0.0000,  0.0000,  0.0000)
  33 Cu     1.587621    5.550162   16.553002    ( 0.0000,  0.0000,  0.0000)
  34 Cu     4.202615    5.550042   16.549794    ( 0.0000,  0.0000,  0.0000)
  35 Cu     0.277674    3.702560   15.213736    ( 0.0000,  0.0000,  0.0000)
  36 Cu     0.273827    3.701733   17.848355    ( 0.0000,  0.0000,  0.0000)
  37 Cu     4.203845    5.549420   19.172659    ( 0.0000,  0.0000,  0.0000)
  38 Cu     1.585006    5.549242   19.176804    ( 0.0000,  0.0000,  0.0000)
  39 Cu     2.894241    3.699557   17.839443    ( 0.0000,  0.0000,  0.0000)
  40 Cu     2.894520    3.701379   20.459514    ( 0.0000,  0.0000,  0.0000)
  41 Cu     1.586209    5.553275   21.824293    ( 0.0000,  0.0000,  0.0000)
  42 Cu     4.201543    5.552984   21.822340    ( 0.0000,  0.0000,  0.0000)
  43 Cu     0.277682    3.700285   20.478087    ( 0.0000,  0.0000,  0.0000)
  44 Cu     0.290704    3.700836   23.097600    ( 0.0000,  0.0000,  0.0000)
  45 Cu     4.211027    5.561063   24.474597    ( 0.0000,  0.0000,  0.0000)
  46 Cu     1.578248    5.559741   24.471978    ( 0.0000,  0.0000,  0.0000)
  47 Cu     2.894116    3.701135   23.081413    ( 0.0000,  0.0000,  0.0000)
  48 Cu     6.806365    1.850668   11.296300    ( 0.0000,  0.0000,  0.0000)
  49 Cu     5.518562   -0.008094    9.921901    ( 0.0000,  0.0000,  0.0000)
  50 Cu     5.510864   -0.001826   12.568990    ( 0.0000,  0.0000,  0.0000)
  51 Cu     6.819315    1.851215   13.914945    ( 0.0000,  0.0000,  0.0000)
  52 Cu     6.823054    1.849749   16.544622    ( 0.0000,  0.0000,  0.0000)
  53 Cu     5.511928    0.002257   15.216145    ( 0.0000,  0.0000,  0.0000)
  54 Cu     5.509256    0.001336   17.839913    ( 0.0000,  0.0000,  0.0000)
  55 Cu     6.819259    1.848905   19.179199    ( 0.0000,  0.0000,  0.0000)
  56 Cu     6.819008    1.863600   21.830226    ( 0.0000,  0.0000,  0.0000)
  57 Cu     5.513690   -0.000260   20.466983    ( 0.0000,  0.0000,  0.0000)
  58 Cu     5.537241   -0.000093   23.125221    ( 0.0000,  0.0000,  0.0000)
  59 Cu     6.817462    1.870032   24.432536    ( 0.0000,  0.0000,  0.0000)
  60 Cu     6.845785    5.550969   11.269066    ( 0.0000,  0.0000,  0.0000)
  61 Cu     5.517757    3.708352    9.920776    ( 0.0000,  0.0000,  0.0000)
  62 Cu     5.509928    3.702358   12.570002    ( 0.0000,  0.0000,  0.0000)
  63 Cu     6.822769    5.550685   13.926591    ( 0.0000,  0.0000,  0.0000)
  64 Cu     6.818120    5.552192   16.553534    ( 0.0000,  0.0000,  0.0000)
  65 Cu     5.511953    3.698672   15.219305    ( 0.0000,  0.0000,  0.0000)
  66 Cu     5.514801    3.699487   17.848932    ( 0.0000,  0.0000,  0.0000)
  67 Cu     6.819352    5.553063   19.182605    ( 0.0000,  0.0000,  0.0000)
  68 Cu     6.820130    5.538602   21.831338    ( 0.0000,  0.0000,  0.0000)
  69 Cu     5.510677    3.701138   20.478591    ( 0.0000,  0.0000,  0.0000)
  70 Cu     5.497302    3.701215   23.097271    ( 0.0000,  0.0000,  0.0000)
  71 Cu     6.819217    5.532194   24.431908    ( 0.0000,  0.0000,  0.0000)
  72 Cl     0.747897    3.707892   25.927710    ( 0.0000,  0.0000,  0.0000)
  73 Cl     5.044637    3.699768   25.926186    ( 0.0000,  0.0000,  0.0000)
  74 Cl     2.890619   -0.000407   25.931304    ( 0.0000,  0.0000,  0.0000)
  75 Cl     6.348414    1.843635    8.465134    ( 0.0000,  0.0000,  0.0000)
  76 Cl     2.052245    1.851671    8.466667    ( 0.0000,  0.0000,  0.0000)
  77 Cl     4.206240    5.551964    8.461868    ( 0.0000,  0.0000,  0.0000)

Unit cell:
           periodic     x           y           z      points  spacing
  1. axis:    yes    7.851007    0.000000    0.000000    45     0.1745
  2. axis:    yes    0.000000    7.402000    0.000000    42     0.1762
  3. axis:    yes    0.000000    0.000000   34.393512   196     0.1755

  Lengths:   7.851007   7.402000  34.393512
  Angles:   90.000000  90.000000  90.000000

Effective grid spacing dv^(1/3) = 0.1754

     iter     time        total  log10-change:
                         energy  eigst   dens
iter:   1 01:00:11 -5675.983796  -2.36
iter:   2 01:01:32 -5675.033944  -2.55  -2.24
iter:   3 01:02:46 -5674.638098  -3.66  -2.52
iter:   4 01:03:59 -5674.741651c -3.81  -2.80
iter:   5 01:05:21 -5674.569454c -3.76  -2.70
iter:   6 01:06:36 -5674.559889c -4.64  -3.12
iter:   7 01:08:02 -5674.557429c -4.56  -3.32
iter:   8 01:09:15 -5674.557244c -5.35  -3.55
iter:   9 01:10:44 -5674.556701c -5.35  -3.63
iter:  10 01:11:57 -5674.556424c -6.03  -3.79
iter:  11 01:13:17 -5674.556123c -6.19  -3.88
iter:  12 01:14:34 -5674.556293c -5.26  -3.93
iter:  13 01:15:46 -5674.556084c -7.01  -4.13c
iter:  14 01:17:10 -5674.555891c -6.29  -4.24c
iter:  15 01:18:22 -5674.555796c -6.30  -4.44c
iter:  16 01:19:36 -5674.555780c -7.17  -4.50c
iter:  17 01:20:47 -5674.555813c -7.32  -4.54c
iter:  18 01:21:59 -5674.555769c -7.16  -4.42c
iter:  19 01:23:19 -5674.555770c -7.28  -4.76c
iter:  20 01:24:37 -5674.555767c -8.53c -4.97c

Converged after 20 iterations.

Dipole moment: (-74.724214, -0.510543, 0.001919) |e|*Ang

Energy contributions relative to reference atoms: (reference = -3316874.228935)

Kinetic:       +551.410347
Potential:     -608.326092
External:        +0.000000
XC:            -5616.193866
Entropy (-ST):   -0.707096
Local:           -1.092609
--------------------------
Free energy:   -5674.909315
Extrapolated:  -5674.555767

Showing only first 2 kpts
 Kpt  Band  Eigenvalues  Occupancy
  0   415      0.71871    1.14951
  0   416      0.80716    0.71640
  0   417      0.92025    0.30526
  0   418      0.93517    0.26865

  1   415      0.25798    1.98534
  1   416      0.44574    1.90792
  1   417      0.49591    1.85234
  1   418      0.64523    1.47619


Fermi level: 0.74884

No gap

Forces in eV/Ang:
  0 Cu   -0.01458    0.02360    0.08126
  1 Cu    0.00175   -0.00120    0.07490
  2 Cu   -0.00036   -0.00005    0.03420
  3 Cu    0.00054   -0.07757    0.17408
  4 Cu   -0.00151   -0.02823    0.03390
  5 Cu    0.00183    0.00043   -0.03560
  6 Cu    0.01971    0.00020   -0.02669
  7 Cu    0.00604   -0.05195   -0.02760
  8 Cu   -0.00298   -0.00794   -0.01557
  9 Cu    0.00164    0.00169   -0.02295
 10 Cu    0.00277    0.00211   -0.01819
 11 Cu    0.00029    0.00865   -0.00850
 12 Cu   -0.00396   -0.00147    0.02476
 13 Cu    0.00365   -0.00800    0.02030
 14 Cu   -0.00314   -0.00776    0.01319
 15 Cu   -0.00173    0.00191    0.01935
 16 Cu   -0.00101    0.00074    0.06786
 17 Cu    0.00486   -0.05283    0.02948
 18 Cu   -0.00545   -0.05230    0.03770
 19 Cu   -0.00324   -0.00040    0.07303
 20 Cu    0.03525    0.00210    0.10227
 21 Cu    0.01359    0.02090   -0.07313
 22 Cu   -0.01381    0.02522   -0.08139
 23 Cu    0.00026   -0.00073    0.12260
 24 Cu   -0.01344   -0.02133    0.07079
 25 Cu    0.03583   -0.00012   -0.10533
 26 Cu    0.00014    0.00071   -0.12604
 27 Cu   -0.00191    0.07847    0.17749
 28 Cu   -0.00084    0.02872    0.03582
 29 Cu    0.00150   -0.00078   -0.06667
 30 Cu   -0.00478   -0.00091   -0.07410
 31 Cu    0.00592    0.05201   -0.03709
 32 Cu   -0.00341    0.00805   -0.01977
 33 Cu   -0.00605   -0.00195   -0.02889
 34 Cu    0.00207   -0.00193   -0.01920
 35 Cu    0.00038   -0.00881   -0.00833
 36 Cu    0.00408    0.00101    0.01815
 37 Cu    0.00323    0.00791    0.01607
 38 Cu   -0.00274    0.00838    0.01413
 39 Cu   -0.00247   -0.00210    0.01857
 40 Cu   -0.00136   -0.00040    0.03701
 41 Cu    0.00432    0.05291    0.03203
 42 Cu   -0.00557    0.05228    0.02818
 43 Cu    0.02066    0.00085    0.02545
 44 Cu    0.00199   -0.00338   -0.07733
 45 Cu    0.01471   -0.02320   -0.08367
 46 Cu   -0.01184   -0.02031   -0.07819
 47 Cu    0.00049    0.00007   -0.03673
 48 Cu   -0.00196    0.00334    0.07429
 49 Cu    0.01175    0.02081    0.07586
 50 Cu   -0.00401   -0.05269   -0.03151
 51 Cu   -0.02034   -0.00081   -0.02424
 52 Cu   -0.00368   -0.00093   -0.01816
 53 Cu    0.00315   -0.00843   -0.01367
 54 Cu    0.00651    0.00191    0.02911
 55 Cu   -0.00003    0.00898    0.00887
 56 Cu    0.00113   -0.02870   -0.03485
 57 Cu    0.00533    0.00088    0.07574
 58 Cu   -0.03561    0.00011    0.10340
 59 Cu    0.00182   -0.07895   -0.17954
 60 Cu   -0.03522   -0.00205   -0.10437
 61 Cu    0.01360   -0.02571    0.07909
 62 Cu   -0.00457    0.05262   -0.02889
 63 Cu    0.00349    0.00036   -0.07134
 64 Cu    0.00428    0.00138   -0.02454
 65 Cu    0.00357    0.00781   -0.01275
 66 Cu   -0.00133   -0.00166    0.02296
 67 Cu    0.00009   -0.00879    0.00910
 68 Cu    0.00178    0.02820   -0.03298
 69 Cu   -0.01933   -0.00019    0.02797
 70 Cu   -0.00136    0.00122   -0.07785
 71 Cu   -0.00071    0.07807   -0.17613
 72 Cl    0.20528   -0.00610   -0.01388
 73 Cl   -0.20956    0.00555   -0.01566
 74 Cl   -0.00906   -0.00447   -0.01631
 75 Cl   -0.20523    0.00610    0.01732
 76 Cl    0.20963   -0.00553    0.01914
 77 Cl    0.00904    0.00447    0.01932

System changes: positions 

Initializing position-dependent things.

Density initialized from wave functions
      .------------------.  
     /|                  |  
    / |                  |  
   /  |                  |  
  /   |                  |  
 *    |                  |  
 |    |                  |  
 |    |                  |  
 |    |                  |  
 |    |                  |  
 |    |      Cl          |  
 |    |                  |  
 |    |                  |  
 |   Cl  Cu    CCl   Cu  |  
 |    |            Cu    |  
 |    |                  |  
 |  CuCu   CCu   CuCu    |  
 |    |  Cu    Cu    Cu  |  
 |    |                  |  
 |CuCuCuCu  Cu   CuCu    |  
 |    |CuCuCu  Cu    Cu  |  
 |    |                  |  
 |Cu  CuCu  CuCu   Cu    |  
 |  Cu|  CuCu  CuCu  Cu  |  
 |    |                  |  
 |    | Cu    Cu         |  
 |  CuCu CCuCu CuCuCuCu  |  
 |    |      Cu    Cu    |  
 |Cu  | Cu    Cu         |  
 |  CuCu   CCu CuCuCu    |  
 |    |  Cu  Cu    CuCu  |  
 |    |                  |  
 |CuCuCu  CuCu   CuCu    |  
 |    |        Cl        |  
 |    |                  |  
 |Cu  |Cl         Cl     |  
 |    |                  |  
 |    |                  |  
 |    |                  |  
 |    |                  |  
 |    |                  |  
 |    |                  |  
 |    .------------------.  
 |   /                  /   
 |  /                  /    
 | /                  /     
 |/                  /      
 *------------------*       

Positions:
   0 Cu     2.884200   -0.013365    9.939846    ( 0.0000,  0.0000,  0.0000)
   1 Cu     1.601065    1.849779   11.316033    ( 0.0000,  0.0000,  0.0000)
   2 Cu     4.202663    1.850416   11.316963    ( 0.0000,  0.0000,  0.0000)
   3 Cu     0.278054    0.003108    9.989520    ( 0.0000,  0.0000,  0.0000)
   4 Cu     0.276809    0.020022   12.568499    ( 0.0000,  0.0000,  0.0000)
   5 Cu     4.202674    1.850436   13.928209    ( 0.0000,  0.0000,  0.0000)
   6 Cu     1.585009    1.850558   13.904525    ( 0.0000,  0.0000,  0.0000)
   7 Cu     2.894420   -0.009367   12.562907    ( 0.0000,  0.0000,  0.0000)
   8 Cu     2.892144    0.001613   15.221784    ( 0.0000,  0.0000,  0.0000)
   9 Cu     1.582160    1.851988   16.539076    ( 0.0000,  0.0000,  0.0000)
  10 Cu     4.203444    1.851841   16.549686    ( 0.0000,  0.0000,  0.0000)
  11 Cu     0.277549    0.002897   15.210457    ( 0.0000,  0.0000,  0.0000)
  12 Cu     0.279307   -0.001565   17.842981    ( 0.0000,  0.0000,  0.0000)
  13 Cu     4.204979    1.852339   19.177660    ( 0.0000,  0.0000,  0.0000)
  14 Cu     1.584263    1.852290   19.172719    ( 0.0000,  0.0000,  0.0000)
  15 Cu     2.893763    0.001319   17.844962    ( 0.0000,  0.0000,  0.0000)
  16 Cu     2.894319    0.000263   20.467400    ( 0.0000,  0.0000,  0.0000)
  17 Cu     1.585562    1.841226   21.831480    ( 0.0000,  0.0000,  0.0000)
  18 Cu     4.203225    1.841432   21.833769    ( 0.0000,  0.0000,  0.0000)
  19 Cu     0.276495    0.000915   20.480301    ( 0.0000,  0.0000,  0.0000)
  20 Cu     0.270043    0.001090   23.149713    ( 0.0000,  0.0000,  0.0000)
  21 Cu     4.211653    1.837342   24.451931    ( 0.0000,  0.0000,  0.0000)
  22 Cu     1.577674    1.839352   24.452327    ( 0.0000,  0.0000,  0.0000)
  23 Cu     2.894517    0.000426   23.089688    ( 0.0000,  0.0000,  0.0000)
  24 Cu     2.884974    3.713871    9.941379    ( 0.0000,  0.0000,  0.0000)
  25 Cu     1.578927    5.551592   11.243138    ( 0.0000,  0.0000,  0.0000)
  26 Cu     4.202505    5.551064   11.303746    ( 0.0000,  0.0000,  0.0000)
  27 Cu     0.278758    3.697731    9.989439    ( 0.0000,  0.0000,  0.0000)
  28 Cu     0.277607    3.680952   12.569958    ( 0.0000,  0.0000,  0.0000)
  29 Cu     4.202773    5.551251   13.926309    ( 0.0000,  0.0000,  0.0000)
  30 Cu     1.585026    5.551292   13.912468    ( 0.0000,  0.0000,  0.0000)
  31 Cu     2.893909    3.710226   12.559777    ( 0.0000,  0.0000,  0.0000)
  32 Cu     2.892018    3.699169   15.215421    ( 0.0000,  0.0000,  0.0000)
  33 Cu     1.587497    5.550177   16.549481    ( 0.0000,  0.0000,  0.0000)
  34 Cu     4.203198    5.550155   16.548068    ( 0.0000,  0.0000,  0.0000)
  35 Cu     0.278160    3.698130   15.213105    ( 0.0000,  0.0000,  0.0000)
  36 Cu     0.274620    3.702400   17.853256    ( 0.0000,  0.0000,  0.0000)
  37 Cu     4.204849    5.549877   19.171241    ( 0.0000,  0.0000,  0.0000)
  38 Cu     1.583974    5.549953   19.175050    ( 0.0000,  0.0000,  0.0000)
  39 Cu     2.893534    3.699682   17.843209    ( 0.0000,  0.0000,  0.0000)
  40 Cu     2.894403    3.701051   20.465555    ( 0.0000,  0.0000,  0.0000)
  41 Cu     1.584935    5.561624   21.833079    ( 0.0000,  0.0000,  0.0000)
  42 Cu     4.202716    5.560693   21.830647    ( 0.0000,  0.0000,  0.0000)
  43 Cu     0.276512    3.700187   20.488335    ( 0.0000,  0.0000,  0.0000)
  44 Cu     0.291951    3.699630   23.077926    ( 0.0000,  0.0000,  0.0000)
  45 Cu     4.212429    5.565154   24.453471    ( 0.0000,  0.0000,  0.0000)
  46 Cu     1.577658    5.564428   24.451593    ( 0.0000,  0.0000,  0.0000)
  47 Cu     2.894436    3.701092   23.076607    ( 0.0000,  0.0000,  0.0000)
  48 Cu     6.805180    1.851847   11.315334    ( 0.0000,  0.0000,  0.0000)
  49 Cu     5.519234   -0.012620    9.941701    ( 0.0000,  0.0000,  0.0000)
  50 Cu     5.512118   -0.010284   12.560452    ( 0.0000,  0.0000,  0.0000)
  51 Cu     6.820579    1.851313   13.905304    ( 0.0000,  0.0000,  0.0000)
  52 Cu     6.822337    1.849084   16.539755    ( 0.0000,  0.0000,  0.0000)
  53 Cu     5.512962    0.001540   15.217992    ( 0.0000,  0.0000,  0.0000)
  54 Cu     5.509396    0.001298   17.843421    ( 0.0000,  0.0000,  0.0000)
  55 Cu     6.818824    1.853366   19.179954    ( 0.0000,  0.0000,  0.0000)
  56 Cu     6.819541    1.870660   21.823720    ( 0.0000,  0.0000,  0.0000)
  57 Cu     5.511970    0.000217   20.481057    ( 0.0000,  0.0000,  0.0000)
  58 Cu     5.518260   -0.000100   23.150542    ( 0.0000,  0.0000,  0.0000)
  59 Cu     6.818034    1.853401   24.404249    ( 0.0000,  0.0000,  0.0000)
  60 Cu     6.826822    5.550425   11.243940    ( 0.0000,  0.0000,  0.0000)
  61 Cu     5.519184    3.711859    9.940972    ( 0.0000,  0.0000,  0.0000)
  62 Cu     5.511462    3.710438   12.562048    ( 0.0000,  0.0000,  0.0000)
  63 Cu     6.820656    5.550581   13.913253    ( 0.0000,  0.0000,  0.0000)
  64 Cu     6.817687    5.553082   16.549932    ( 0.0000,  0.0000,  0.0000)
  65 Cu     5.512660    3.699210   15.220345    ( 0.0000,  0.0000,  0.0000)
  66 Cu     5.514738    3.699538   17.853902    ( 0.0000,  0.0000,  0.0000)
  67 Cu     6.819431    5.548600   19.182571    ( 0.0000,  0.0000,  0.0000)
  68 Cu     6.820312    5.531367   21.825173    ( 0.0000,  0.0000,  0.0000)
  69 Cu     5.511970    3.700933   20.489096    ( 0.0000,  0.0000,  0.0000)
  70 Cu     5.495854    3.701729   23.077253    ( 0.0000,  0.0000,  0.0000)
  71 Cu     6.818709    5.548774   24.404164    ( 0.0000,  0.0000,  0.0000)
  72 Cl     0.773332    3.707037   25.935246    ( 0.0000,  0.0000,  0.0000)
  73 Cl     5.018664    3.700476   25.933474    ( 0.0000,  0.0000,  0.0000)
  74 Cl     2.889563   -0.000972   25.930986    ( 0.0000,  0.0000,  0.0000)
  75 Cl     6.322996    1.844485    8.457760    ( 0.0000,  0.0000,  0.0000)
  76 Cl     2.078222    1.850963    8.459555    ( 0.0000,  0.0000,  0.0000)
  77 Cl     4.207305    5.552530    8.462244    ( 0.0000,  0.0000,  0.0000)

Unit cell:
           periodic     x           y           z      points  spacing
  1. axis:    yes    7.851007    0.000000    0.000000    45     0.1745
  2. axis:    yes    0.000000    7.402000    0.000000    42     0.1762
  3. axis:    yes    0.000000    0.000000   34.393512   196     0.1755

  Lengths:   7.851007   7.402000  34.393512
  Angles:   90.000000  90.000000  90.000000

Effective grid spacing dv^(1/3) = 0.1754

     iter     time        total  log10-change:
                         energy  eigst   dens
iter:   1 01:26:32 -5677.003219  -2.15
iter:   2 01:27:52 -5675.455284  -2.31  -2.12
iter:   3 01:29:07 -5674.723349  -3.42  -2.40
iter:   4 01:30:23 -5674.929517  -3.57  -2.71
iter:   5 01:31:39 -5674.627125c -3.58  -2.57
iter:   6 01:32:56 -5674.608649c -4.46  -2.98
iter:   7 01:34:15 -5674.603571c -4.32  -3.19
iter:   8 01:35:28 -5674.603484c -5.09  -3.44
iter:   9 01:36:42 -5674.602579c -5.23  -3.52
iter:  10 01:37:55 -5674.602137c -5.72  -3.65
iter:  11 01:39:18 -5674.601642c -5.93  -3.76
iter:  12 01:41:05 -5674.601731c -5.11  -3.81
iter:  13 01:42:22 -5674.601390c -6.75  -4.01c
iter:  14 01:43:34 -5674.601220c -6.19  -4.13c
iter:  15 01:44:49 -5674.601088c -6.17  -4.27c
iter:  16 01:46:08 -5674.601057c -6.80  -4.32c
iter:  17 01:47:22 -5674.601129c -6.85  -4.37c
iter:  18 01:48:35 -5674.601030c -7.18  -4.25c
iter:  19 01:49:52 -5674.601040c -6.82  -4.56c
iter:  20 01:51:04 -5674.601031c -8.23c -4.75c

Converged after 20 iterations.

Dipole moment: (-74.701619, 0.614480, 0.000158) |e|*Ang

Energy contributions relative to reference atoms: (reference = -3316874.228935)

Kinetic:       +551.461711
Potential:     -608.429388
External:        +0.000000
XC:            -5616.206060
Entropy (-ST):   -0.707797
Local:           -1.073396
--------------------------
Free energy:   -5674.954930
Extrapolated:  -5674.601031

Showing only first 2 kpts
 Kpt  Band  Eigenvalues  Occupancy
  0   415      0.67542    1.13564
  0   416      0.75420    0.74812
  0   417      0.87341    0.30710
  0   418      0.89185    0.26218

  1   415      0.21146    1.98540
  1   416      0.40107    1.90662
  1   417      0.45075    1.85101
  1   418      0.59512    1.49143


Fermi level: 0.70271

No gap

Forces in eV/Ang:
  0 Cu   -0.01644    0.10357   -0.04724
  1 Cu   -0.01035    0.00285   -0.04539
  2 Cu    0.00237   -0.00068    0.03197
  3 Cu   -0.00384    0.00339    0.08758
  4 Cu   -0.00213   -0.13720    0.01366
  5 Cu    0.00201   -0.00253   -0.02559
  6 Cu    0.06073   -0.00180    0.05323
  7 Cu    0.02578   -0.03263    0.03117
  8 Cu    0.00401   -0.01289   -0.05179
  9 Cu    0.00331    0.00393    0.00265
 10 Cu   -0.00221    0.00565   -0.00085
 11 Cu    0.00112   -0.02814   -0.02064
 12 Cu   -0.01432    0.00635    0.01682
 13 Cu   -0.00520   -0.01183    0.04483
 14 Cu    0.00101   -0.01173    0.04228
 15 Cu    0.00189    0.00560    0.02452
 16 Cu    0.00170   -0.00193    0.01088
 17 Cu    0.02840   -0.03252   -0.02811
 18 Cu   -0.02446   -0.03329   -0.02420
 19 Cu   -0.03078   -0.00213    0.01666
 20 Cu   -0.11309   -0.00178   -0.04251
 21 Cu    0.01868    0.10339    0.05526
 22 Cu   -0.01534    0.10382    0.04894
 23 Cu    0.00084    0.00180    0.06710
 24 Cu   -0.01832   -0.10282   -0.05494
 25 Cu   -0.11389   -0.00049    0.04289
 26 Cu   -0.00055   -0.00174   -0.06806
 27 Cu    0.00208   -0.00248    0.08917
 28 Cu    0.00300    0.13666    0.01396
 29 Cu   -0.00148    0.00182   -0.01270
 30 Cu   -0.02896    0.00303   -0.02217
 31 Cu    0.02475    0.03182    0.02342
 32 Cu    0.00519    0.01191   -0.04365
 33 Cu   -0.01233   -0.00438   -0.02598
 34 Cu   -0.00170   -0.00541   -0.02305
 35 Cu   -0.00445    0.02783   -0.01178
 36 Cu    0.00067   -0.00502   -0.01094
 37 Cu   -0.00401    0.01283    0.05360
 38 Cu    0.00558    0.01123    0.05300
 39 Cu    0.00225   -0.00586    0.00323
 40 Cu   -0.00182    0.00260    0.02283
 41 Cu    0.02360    0.02840   -0.02850
 42 Cu   -0.02554    0.03419   -0.03215
 43 Cu    0.06150    0.00311   -0.05786
 44 Cu   -0.00776    0.00572    0.04533
 45 Cu    0.01681   -0.10417    0.04754
 46 Cu   -0.01955   -0.10362    0.05208
 47 Cu   -0.00244    0.00062   -0.03107
 48 Cu    0.00739   -0.00549   -0.04267
 49 Cu    0.01883    0.10306   -0.05205
 50 Cu   -0.02289   -0.02705    0.02768
 51 Cu   -0.06178   -0.00303    0.05550
 52 Cu   -0.00056    0.00514    0.01250
 53 Cu   -0.00474   -0.01137   -0.05153
 54 Cu    0.01303    0.00452    0.02787
 55 Cu    0.00470   -0.02782    0.01347
 56 Cu   -0.00319   -0.13737   -0.01532
 57 Cu    0.02974   -0.00312    0.02145
 58 Cu    0.11315    0.00055   -0.04398
 59 Cu   -0.00179    0.00392   -0.08887
 60 Cu    0.11427    0.00165    0.04133
 61 Cu    0.01484   -0.10331   -0.04888
 62 Cu   -0.02747    0.03115    0.02733
 63 Cu    0.03047    0.00206   -0.01752
 64 Cu    0.01442   -0.00648   -0.01498
 65 Cu   -0.00007    0.01191   -0.04090
 66 Cu   -0.00252   -0.00409   -0.00099
 67 Cu   -0.00077    0.02818    0.02240
 68 Cu    0.00219    0.13790   -0.01502
 69 Cu   -0.05971    0.00187   -0.05547
 70 Cu    0.01151   -0.00292    0.04789
 71 Cu    0.00435   -0.00485   -0.08732
 72 Cl    0.19070   -0.00473   -0.12613
 73 Cl   -0.19447    0.00497   -0.12709
 74 Cl   -0.00909   -0.00390   -0.04729
 75 Cl   -0.19065    0.00477    0.12559
 76 Cl    0.19444   -0.00497    0.12657
 77 Cl    0.00905    0.00392    0.04794

System changes: positions 

Initializing position-dependent things.

Density initialized from wave functions
      .------------------.  
     /|                  |  
    / |                  |  
   /  |                  |  
  /   |                  |  
 *    |                  |  
 |    |                  |  
 |    |                  |  
 |    |                  |  
 |    |                  |  
 |    |      Cl          |  
 |    |                  |  
 |    |                  |  
 |   Cl  Cu    CCl   Cu  |  
 |    |            Cu    |  
 |    |                  |  
 |  CuCu   CCu   CuCu    |  
 |    |  Cu    Cu    Cu  |  
 |    |                  |  
 |CuCuCuCu  Cu   CuCu    |  
 |    |CuCuCu  Cu    Cu  |  
 |    |                  |  
 |Cu  CuCu  CuCu   Cu    |  
 |  Cu|  CuCuCuCuCuCuCu  |  
 |    |                  |  
 |    | Cu    Cu         |  
 |  CuCu CCuCu CuCuCuCu  |  
 |    |      Cu    Cu    |  
 |Cu  |                  |  
 |  CuCu   CCu CuCuCu    |  
 |    |CuCu  Cu    CuCu  |  
 |    |                  |  
 |CuCuCu  CuCu   CuCu    |  
 |    |        Cl        |  
 |    |                  |  
 |    |Cl        Cl      |  
 |    |                  |  
 |    |                  |  
 |    |                  |  
 |    |                  |  
 |    |                  |  
 |    |                  |  
 |    .------------------.  
 |   /                  /   
 |  /                  /    
 | /                  /     
 |/                  /      
 *------------------*       

Positions:
   0 Cu     2.881425   -0.002260    9.936605    ( 0.0000,  0.0000,  0.0000)
   1 Cu     1.601878    1.849794   11.322526    ( 0.0000,  0.0000,  0.0000)
   2 Cu     4.202741    1.850305   11.326782    ( 0.0000,  0.0000,  0.0000)
   3 Cu     0.277901   -0.001784   10.010939    ( 0.0000,  0.0000,  0.0000)
   4 Cu     0.276516    0.011572   12.569642    ( 0.0000,  0.0000,  0.0000)
   5 Cu     4.202998    1.850326   13.924728    ( 0.0000,  0.0000,  0.0000)
   6 Cu     1.591290    1.850462   13.905434    ( 0.0000,  0.0000,  0.0000)
   7 Cu     2.896651   -0.016983   12.558568    ( 0.0000,  0.0000,  0.0000)
   8 Cu     2.892066   -0.000069   15.216207    ( 0.0000,  0.0000,  0.0000)
   9 Cu     1.582554    1.852431   16.537788    ( 0.0000,  0.0000,  0.0000)
  10 Cu     4.203570    1.852448   16.548991    ( 0.0000,  0.0000,  0.0000)
  11 Cu     0.277703    0.002721   15.206906    ( 0.0000,  0.0000,  0.0000)
  12 Cu     0.278098   -0.001501   17.845365    ( 0.0000,  0.0000,  0.0000)
  13 Cu     4.205070    1.850763   19.183969    ( 0.0000,  0.0000,  0.0000)
  14 Cu     1.583871    1.850693   19.177646    ( 0.0000,  0.0000,  0.0000)
  15 Cu     2.893749    0.001904   17.847125    ( 0.0000,  0.0000,  0.0000)
  16 Cu     2.894337    0.000239   20.473482    ( 0.0000,  0.0000,  0.0000)
  17 Cu     1.587839    1.833567   21.836457    ( 0.0000,  0.0000,  0.0000)
  18 Cu     4.201190    1.833747   21.840147    ( 0.0000,  0.0000,  0.0000)
  19 Cu     0.273620    0.000721   20.487758    ( 0.0000,  0.0000,  0.0000)
  20 Cu     0.267084    0.001230   23.157729    ( 0.0000,  0.0000,  0.0000)
  21 Cu     4.214406    1.848141   24.456840    ( 0.0000,  0.0000,  0.0000)
  22 Cu     1.575303    1.850606   24.455770    ( 0.0000,  0.0000,  0.0000)
  23 Cu     2.894632    0.000454   23.105791    ( 0.0000,  0.0000,  0.0000)
  24 Cu     2.882202    3.703050    9.936268    ( 0.0000,  0.0000,  0.0000)
  25 Cu     1.576037    5.551631   11.234974    ( 0.0000,  0.0000,  0.0000)
  26 Cu     4.202435    5.551038   11.287391    ( 0.0000,  0.0000,  0.0000)
  27 Cu     0.278924    3.702764   10.011303    ( 0.0000,  0.0000,  0.0000)
  28 Cu     0.277782    3.689426   12.571466    ( 0.0000,  0.0000,  0.0000)
  29 Cu     4.202821    5.551268   13.920339    ( 0.0000,  0.0000,  0.0000)
  30 Cu     1.582085    5.551417   13.904599    ( 0.0000,  0.0000,  0.0000)
  31 Cu     2.896019    3.717819   12.553461    ( 0.0000,  0.0000,  0.0000)
  32 Cu     2.891961    3.700755   15.209293    ( 0.0000,  0.0000,  0.0000)
  33 Cu     1.586217    5.549647   16.546031    ( 0.0000,  0.0000,  0.0000)
  34 Cu     4.203266    5.549579   16.546070    ( 0.0000,  0.0000,  0.0000)
  35 Cu     0.277821    3.698271   15.210262    ( 0.0000,  0.0000,  0.0000)
  36 Cu     0.275061    3.702363   17.853470    ( 0.0000,  0.0000,  0.0000)
  37 Cu     4.204962    5.551551   19.177012    ( 0.0000,  0.0000,  0.0000)
  38 Cu     1.584066    5.551551   19.180876    ( 0.0000,  0.0000,  0.0000)
  39 Cu     2.893452    3.699064   17.844133    ( 0.0000,  0.0000,  0.0000)
  40 Cu     2.894145    3.701165   20.469134    ( 0.0000,  0.0000,  0.0000)
  41 Cu     1.586834    5.569115   21.838532    ( 0.0000,  0.0000,  0.0000)
  42 Cu     4.200559    5.568405   21.835024    ( 0.0000,  0.0000,  0.0000)
  43 Cu     0.282931    3.700476   20.487040    ( 0.0000,  0.0000,  0.0000)
  44 Cu     0.292989    3.699613   23.071348    ( 0.0000,  0.0000,  0.0000)
  45 Cu     4.215184    5.554068   24.456501    ( 0.0000,  0.0000,  0.0000)
  46 Cu     1.575006    5.553592   24.455699    ( 0.0000,  0.0000,  0.0000)
  47 Cu     2.894375    3.701203   23.066792    ( 0.0000,  0.0000,  0.0000)
  48 Cu     6.804146    1.851874   11.321921    ( 0.0000,  0.0000,  0.0000)
  49 Cu     5.521851   -0.001750    9.937368    ( 0.0000,  0.0000,  0.0000)
  50 Cu     5.510286   -0.017698   12.555039    ( 0.0000,  0.0000,  0.0000)
  51 Cu     6.814190    1.851030   13.906639    ( 0.0000,  0.0000,  0.0000)
  52 Cu     6.821953    1.849133   16.539696    ( 0.0000,  0.0000,  0.0000)
  53 Cu     5.512961   -0.000073   15.212341    ( 0.0000,  0.0000,  0.0000)
  54 Cu     5.510760    0.001834   17.847038    ( 0.0000,  0.0000,  0.0000)
  55 Cu     6.819219    1.853247   19.183003    ( 0.0000,  0.0000,  0.0000)
  56 Cu     6.819395    1.862134   21.822283    ( 0.0000,  0.0000,  0.0000)
  57 Cu     5.515000    0.000087   20.489111    ( 0.0000,  0.0000,  0.0000)
  58 Cu     5.521130   -0.000136   23.158577    ( 0.0000,  0.0000,  0.0000)
  59 Cu     6.817888    1.848342   24.382319    ( 0.0000,  0.0000,  0.0000)
  60 Cu     6.829866    5.550283   11.235784    ( 0.0000,  0.0000,  0.0000)
  61 Cu     5.521521    3.700571    9.937309    ( 0.0000,  0.0000,  0.0000)
  62 Cu     5.509263    3.718018   12.557115    ( 0.0000,  0.0000,  0.0000)
  63 Cu     6.823567    5.550768   13.905986    ( 0.0000,  0.0000,  0.0000)
  64 Cu     6.818945    5.553006   16.547724    ( 0.0000,  0.0000,  0.0000)
  65 Cu     5.513149    3.700822   15.215586    ( 0.0000,  0.0000,  0.0000)
  66 Cu     5.514420    3.699088   17.855342    ( 0.0000,  0.0000,  0.0000)
  67 Cu     6.819341    5.548758   19.186334    ( 0.0000,  0.0000,  0.0000)
  68 Cu     6.820646    5.539866   21.824102    ( 0.0000,  0.0000,  0.0000)
  69 Cu     5.505791    3.701031   20.488232    ( 0.0000,  0.0000,  0.0000)
  70 Cu     5.495130    3.701712   23.070747    ( 0.0000,  0.0000,  0.0000)
  71 Cu     6.818885    5.553694   24.382677    ( 0.0000,  0.0000,  0.0000)
  72 Cl     0.813269    3.706155   25.909226    ( 0.0000,  0.0000,  0.0000)
  73 Cl     4.978049    3.701437   25.907217    ( 0.0000,  0.0000,  0.0000)
  74 Cl     2.888038   -0.001753   25.911572    ( 0.0000,  0.0000,  0.0000)
  75 Cl     6.283068    1.845369    8.483775    ( 0.0000,  0.0000,  0.0000)
  76 Cl     2.118836    1.849999    8.485815    ( 0.0000,  0.0000,  0.0000)
  77 Cl     4.208832    5.553318    8.481751    ( 0.0000,  0.0000,  0.0000)

Unit cell:
           periodic     x           y           z      points  spacing
  1. axis:    yes    7.851007    0.000000    0.000000    45     0.1745
  2. axis:    yes    0.000000    7.402000    0.000000    42     0.1762
  3. axis:    yes    0.000000    0.000000   34.393512   196     0.1755

  Lengths:   7.851007   7.402000  34.393512
  Angles:   90.000000  90.000000  90.000000

Effective grid spacing dv^(1/3) = 0.1754

     iter     time        total  log10-change:
                         energy  eigst   dens
iter:   1 01:53:01 -5676.700141  -2.39
iter:   2 01:54:13 -5675.333488  -2.34  -2.15
iter:   3 01:55:25 -5674.680021  -3.48  -2.47
iter:   4 01:56:38 -5674.671954  -4.26  -3.01
iter:   5 01:57:50 -5674.695025c -4.14  -3.11
iter:   6 01:59:02 -5674.663564c -4.72  -3.05
iter:   7 02:00:23 -5674.659821c -5.09  -3.41
iter:   8 02:01:37 -5674.659793c -5.20  -3.55
iter:   9 02:02:50 -5674.660239c -5.25  -3.67
iter:  10 02:04:01 -5674.659486c -6.13  -3.78
iter:  11 02:05:13 -5674.659112c -6.02  -3.93
iter:  12 02:06:28 -5674.659132c -5.79  -4.07c
iter:  13 02:07:40 -5674.659096c -6.52  -4.19c
iter:  14 02:08:51 -5674.658976c -6.98  -4.22c
iter:  15 02:10:06 -5674.658989c -6.79  -4.40c
iter:  16 02:11:19 -5674.658977c -7.06  -4.57c
iter:  17 02:12:33 -5674.658980c -7.75c -4.78c

Converged after 17 iterations.

Dipole moment: (-74.166387, 0.977768, 0.000126) |e|*Ang

Energy contributions relative to reference atoms: (reference = -3316874.228935)

Kinetic:       +554.645300
Potential:     -610.964560
External:        +0.000000
XC:            -5616.939345
Entropy (-ST):   -0.708031
Local:           -1.046359
[...]
 64 Cu    0.00304   -0.00170   -0.00926
 65 Cu    0.00326    0.00358   -0.00417
 66 Cu    0.00269    0.00018   -0.00322
 67 Cu   -0.00019    0.00286    0.00518
 68 Cu    0.00069    0.00341   -0.00421
 69 Cu   -0.00485   -0.00133   -0.00865
 70 Cu   -0.00214    0.00064    0.00068
 71 Cu   -0.00019    0.00233   -0.00916
 72 Cl   -0.02174   -0.00162   -0.00496
 73 Cl    0.01633   -0.00190   -0.00416
 74 Cl   -0.00732   -0.00477   -0.04811
 75 Cl    0.02190    0.00164    0.00353
 76 Cl   -0.01644    0.00193    0.00324
 77 Cl    0.00739    0.00483    0.04656

System changes: positions 

Initializing position-dependent things.

Density initialized from wave functions
      .------------------.  
     /|                  |  
    / |                  |  
   /  |                  |  
  /   |                  |  
 *    |                  |  
 |    |                  |  
 |    |                  |  
 |    |                  |  
 |    |                  |  
 |    |      Cl          |  
 |    |                  |  
 |    |                  |  
 |    ClCu     Cl        |  
 |    |              Cu  |  
 |    |                  |  
 |  CuCu   CuCu  CuCu    |  
 |    |  Cu    Cu    Cu  |  
 |    |                  |  
 |Cu  CuCu  CuCu   Cu    |  
 |  Cu|CuCuCu  CuCu  Cu  |  
 |    |                  |  
 |Cu  CuCu  CuCu   Cu    |  
 |  Cu|  CuCuCuCuCuCuCu  |  
 |    |                  |  
 |    | Cu    Cu         |  
 |  CuCu CuCCu CuCuCuCu  |  
 |    |Cu    Cu    Cu    |  
 |Cu  |                  |  
 |  CuCu CuCCu   CuCuCu  |  
 |    |Cu      Cu        |  
 |    |                  |  
 |  CuCu  CuCu   CuCu    |  
 |    |        Cl        |  
 |    |                  |  
 |    | Cu    Cu Cl      |  
 |    |                  |  
 |    |                  |  
 |    |                  |  
 |    |                  |  
 |    |                  |  
 |    |                  |  
 |    .------------------.  
 |   /                  /   
 |  /                  /    
 | /                  /     
 |/                  /      
 *------------------*       

Positions:
   0 Cu     2.866363    0.051986    9.945224    ( 0.0000,  0.0000,  0.0000)
   1 Cu     1.586066    1.850248   11.361242    ( 0.0000,  0.0000,  0.0000)
   2 Cu     4.203114    1.850215   11.360547    ( 0.0000,  0.0000,  0.0000)
   3 Cu     0.276982   -0.001626   10.076859    ( 0.0000,  0.0000,  0.0000)
   4 Cu     0.276883   -0.010258   12.614621    ( 0.0000,  0.0000,  0.0000)
   5 Cu     4.203213    1.850491   13.930631    ( 0.0000,  0.0000,  0.0000)
   6 Cu     1.594475    1.850551   13.931647    ( 0.0000,  0.0000,  0.0000)
   7 Cu     2.901697   -0.027315   12.569383    ( 0.0000,  0.0000,  0.0000)
   8 Cu     2.894929   -0.003280   15.218755    ( 0.0000,  0.0000,  0.0000)
   9 Cu     1.586916    1.852244   16.548654    ( 0.0000,  0.0000,  0.0000)
  10 Cu     4.202252    1.852366   16.545960    ( 0.0000,  0.0000,  0.0000)
  11 Cu     0.278895    0.000601   15.225246    ( 0.0000,  0.0000,  0.0000)
  12 Cu     0.279073   -0.000008   17.840966    ( 0.0000,  0.0000,  0.0000)
  13 Cu     4.202754    1.847523   19.180207    ( 0.0000,  0.0000,  0.0000)
  14 Cu     1.587170    1.847623   19.179566    ( 0.0000,  0.0000,  0.0000)
  15 Cu     2.895700    0.001868   17.854094    ( 0.0000,  0.0000,  0.0000)
  16 Cu     2.894999    0.000425   20.488142    ( 0.0000,  0.0000,  0.0000)
  17 Cu     1.592935    1.823220   21.826825    ( 0.0000,  0.0000,  0.0000)
  18 Cu     4.196436    1.823421   21.829020    ( 0.0000,  0.0000,  0.0000)
  19 Cu     0.275712    0.000313   20.460220    ( 0.0000,  0.0000,  0.0000)
  20 Cu     0.276129    0.000297   23.125779    ( 0.0000,  0.0000,  0.0000)
  21 Cu     4.231649    1.905216   24.452061    ( 0.0000,  0.0000,  0.0000)
  22 Cu     1.562025    1.905598   24.449938    ( 0.0000,  0.0000,  0.0000)
  23 Cu     2.896026    0.001937   23.171543    ( 0.0000,  0.0000,  0.0000)
  24 Cu     2.865418    3.646489    9.941669    ( 0.0000,  0.0000,  0.0000)
  25 Cu     1.584295    5.550730   11.264045    ( 0.0000,  0.0000,  0.0000)
  26 Cu     4.201439    5.549549   11.222166    ( 0.0000,  0.0000,  0.0000)
  27 Cu     0.276960    3.701792   10.078027    ( 0.0000,  0.0000,  0.0000)
  28 Cu     0.277367    3.710426   12.616814    ( 0.0000,  0.0000,  0.0000)
  29 Cu     4.202665    5.551075   13.905237    ( 0.0000,  0.0000,  0.0000)
  30 Cu     1.584501    5.551249   13.931679    ( 0.0000,  0.0000,  0.0000)
  31 Cu     2.901147    3.727933   12.564498    ( 0.0000,  0.0000,  0.0000)
  32 Cu     2.894930    3.703973   15.213062    ( 0.0000,  0.0000,  0.0000)
  33 Cu     1.588990    5.549837   16.556454    ( 0.0000,  0.0000,  0.0000)
  34 Cu     4.201976    5.549620   16.539079    ( 0.0000,  0.0000,  0.0000)
  35 Cu     0.278646    3.700250   15.228463    ( 0.0000,  0.0000,  0.0000)
  36 Cu     0.277800    3.701032   17.848285    ( 0.0000,  0.0000,  0.0000)
  37 Cu     4.202753    5.554781   19.174491    ( 0.0000,  0.0000,  0.0000)
  38 Cu     1.587962    5.554709   19.182238    ( 0.0000,  0.0000,  0.0000)
  39 Cu     2.895419    3.699142   17.847220    ( 0.0000,  0.0000,  0.0000)
  40 Cu     2.894539    3.701011   20.462738    ( 0.0000,  0.0000,  0.0000)
  41 Cu     1.592770    5.579614   21.829136    ( 0.0000,  0.0000,  0.0000)
  42 Cu     4.195871    5.578948   21.824118    ( 0.0000,  0.0000,  0.0000)
  43 Cu     0.285994    3.701085   20.459884    ( 0.0000,  0.0000,  0.0000)
  44 Cu     0.279239    3.702030   23.031565    ( 0.0000,  0.0000,  0.0000)
  45 Cu     4.230711    5.499278   24.448484    ( 0.0000,  0.0000,  0.0000)
  46 Cu     1.560229    5.498513   24.453507    ( 0.0000,  0.0000,  0.0000)
  47 Cu     2.894288    3.701277   23.032822    ( 0.0000,  0.0000,  0.0000)
  48 Cu     6.818204    1.849462   11.361757    ( 0.0000,  0.0000,  0.0000)
  49 Cu     5.537022    0.052783    9.940044    ( 0.0000,  0.0000,  0.0000)
  50 Cu     5.504828   -0.027999   12.564343    ( 0.0000,  0.0000,  0.0000)
  51 Cu     6.811793    1.850408   13.933480    ( 0.0000,  0.0000,  0.0000)
  52 Cu     6.819867    1.850472   16.544955    ( 0.0000,  0.0000,  0.0000)
  53 Cu     5.509731   -0.003213   15.211022    ( 0.0000,  0.0000,  0.0000)
  54 Cu     5.508687    0.001655   17.836760    ( 0.0000,  0.0000,  0.0000)
  55 Cu     6.819029    1.851290   19.164836    ( 0.0000,  0.0000,  0.0000)
  56 Cu     6.820229    1.841029   21.776585    ( 0.0000,  0.0000,  0.0000)
  57 Cu     5.513196    0.000247   20.461691    ( 0.0000,  0.0000,  0.0000)
  58 Cu     5.513055    0.000756   23.129556    ( 0.0000,  0.0000,  0.0000)
  59 Cu     6.820308    1.849741   24.315284    ( 0.0000,  0.0000,  0.0000)
  60 Cu     6.821336    5.551201   11.267691    ( 0.0000,  0.0000,  0.0000)
  61 Cu     5.535184    3.646106    9.943639    ( 0.0000,  0.0000,  0.0000)
  62 Cu     5.504671    3.728165   12.566662    ( 0.0000,  0.0000,  0.0000)
  63 Cu     6.821994    5.551190   13.933131    ( 0.0000,  0.0000,  0.0000)
  64 Cu     6.818593    5.551500   16.552275    ( 0.0000,  0.0000,  0.0000)
  65 Cu     5.510537    3.703875   15.213691    ( 0.0000,  0.0000,  0.0000)
  66 Cu     5.510735    3.699263   17.844581    ( 0.0000,  0.0000,  0.0000)
  67 Cu     6.818786    5.550856   19.168068    ( 0.0000,  0.0000,  0.0000)
  68 Cu     6.820709    5.561798   21.778781    ( 0.0000,  0.0000,  0.0000)
  69 Cu     5.503193    3.700953   20.461811    ( 0.0000,  0.0000,  0.0000)
  70 Cu     5.511245    3.701246   23.032220    ( 0.0000,  0.0000,  0.0000)
  71 Cu     6.820297    5.553085   24.316459    ( 0.0000,  0.0000,  0.0000)
  72 Cl     0.978602    3.697097   25.955043    ( 0.0000,  0.0000,  0.0000)
  73 Cl     4.803881    3.705673   25.952498    ( 0.0000,  0.0000,  0.0000)
  74 Cl     2.871461   -0.009105   25.862434    ( 0.0000,  0.0000,  0.0000)
  75 Cl     6.118030    1.854449    8.438573    ( 0.0000,  0.0000,  0.0000)
  76 Cl     2.292708    1.845823    8.441316    ( 0.0000,  0.0000,  0.0000)
  77 Cl     4.225391    5.560719    8.531211    ( 0.0000,  0.0000,  0.0000)

Unit cell:
           periodic     x           y           z      points  spacing
  1. axis:    yes    7.851007    0.000000    0.000000    45     0.1745
  2. axis:    yes    0.000000    7.402000    0.000000    42     0.1762
  3. axis:    yes    0.000000    0.000000   34.393512   196     0.1755

  Lengths:   7.851007   7.402000  34.393512
  Angles:   90.000000  90.000000  90.000000

Effective grid spacing dv^(1/3) = 0.1754

     iter     time        total  log10-change:
                         energy  eigst   dens
iter:   1 04:44:44 -5674.767227  -4.11
iter:   2 04:45:59 -5674.756818  -4.56  -3.24
iter:   3 04:47:13 -5674.754247c -5.47  -3.50
iter:   4 04:48:25 -5674.753799c -5.69  -3.62
iter:   5 04:49:38 -5674.751978c -5.30  -3.65
iter:   6 04:50:52 -5674.751782c -6.25  -4.11c
iter:   7 04:52:06 -5674.751782c -6.99  -4.29c
iter:   8 04:53:18 -5674.751793c -7.09  -4.38c
iter:   9 04:54:49 -5674.751784c -6.97  -4.49c
iter:  10 04:56:02 -5674.751775c -7.89c -4.71c

Converged after 10 iterations.

Dipole moment: (-72.563402, -0.395477, 0.000856) |e|*Ang

Energy contributions relative to reference atoms: (reference = -3316874.228935)

Kinetic:       +556.684483
Potential:     -612.589578
External:        +0.000000
XC:            -5617.488497
Entropy (-ST):   -0.706929
Local:           -1.004718
--------------------------
Free energy:   -5675.105239
Extrapolated:  -5674.751775

Showing only first 2 kpts
 Kpt  Band  Eigenvalues  Occupancy
  0   415      0.67301    1.10049
  0   416      0.73706    0.78401
  0   417      0.85178    0.33988
  0   418      0.86605    0.30148

  1   415      0.21936    1.98264
  1   416      0.37522    1.92011
  1   417      0.43567    1.85847
  1   418      0.59040    1.47294


Fermi level: 0.69317

No gap

Forces in eV/Ang:
  0 Cu   -0.00106    0.00916   -0.00005
  1 Cu   -0.00675   -0.00112    0.00643
  2 Cu   -0.00001   -0.00080    0.00570
  3 Cu    0.00046    0.00179    0.01091
  4 Cu   -0.00046   -0.00046    0.00261
  5 Cu   -0.00033   -0.00147   -0.00405
  6 Cu    0.00186   -0.00134    0.00056
  7 Cu   -0.00097   -0.00309    0.00271
  8 Cu    0.00037   -0.00424   -0.00144
  9 Cu    0.00013   -0.00382    0.00152
 10 Cu    0.00018   -0.00381   -0.00366
 11 Cu   -0.00007   -0.00330   -0.00480
 12 Cu   -0.00048   -0.00285    0.00488
 13 Cu   -0.00022   -0.00427    0.00632
 14 Cu    0.00044   -0.00405    0.00702
 15 Cu    0.00009   -0.00367    0.00050
 16 Cu    0.00041   -0.00131   -0.00662
 17 Cu   -0.00026   -0.00276    0.00060
 18 Cu    0.00101   -0.00236   -0.00163
 19 Cu    0.00208   -0.00031    0.00685
 20 Cu    0.00272    0.00020    0.00024
 21 Cu    0.00236    0.01164   -0.00154
 22 Cu    0.00161    0.00868    0.00149
 23 Cu    0.00171    0.00042   -0.00767
 24 Cu   -0.00148   -0.01100    0.00196
 25 Cu    0.00313   -0.00028   -0.00081
 26 Cu   -0.00129   -0.00042    0.00671
 27 Cu   -0.00008   -0.00265    0.01047
 28 Cu    0.00000   -0.00021    0.00183
 29 Cu   -0.00012    0.00128    0.00450
 30 Cu    0.00249    0.00121   -0.00578
 31 Cu   -0.00091    0.00239    0.00079
 32 Cu    0.00055    0.00415   -0.00725
 33 Cu   -0.00030    0.00380   -0.00368
 34 Cu    0.00019    0.00370   -0.00130
 35 Cu    0.00004    0.00316   -0.00694
 36 Cu    0.00019    0.00294   -0.00031
 37 Cu   -0.00007    0.00436    0.00076
 38 Cu    0.00027    0.00427    0.00521
 39 Cu    0.00009    0.00378    0.00299
 40 Cu    0.00061    0.00144    0.00211
 41 Cu   -0.00035    0.00263    0.00047
 42 Cu    0.00106    0.00307   -0.00338
 43 Cu    0.00174    0.00016    0.00165
 44 Cu   -0.00498    0.00035   -0.00332
 45 Cu    0.00193   -0.00974    0.00050
 46 Cu   -0.00085   -0.00900    0.00241
 47 Cu    0.00016    0.00076   -0.00730
 48 Cu    0.00525   -0.00034    0.00237
 49 Cu    0.00098    0.00859   -0.00184
 50 Cu    0.00069   -0.00273   -0.00109
 51 Cu   -0.00150   -0.00018   -0.00309
 52 Cu    0.00011   -0.00295   -0.00056
 53 Cu    0.00008   -0.00416   -0.00582
 54 Cu    0.00072   -0.00377    0.00322
 55 Cu    0.00020   -0.00312    0.00589
 56 Cu    0.00024    0.00060   -0.00277
 57 Cu   -0.00181   -0.00121    0.00408
 58 Cu   -0.00264    0.00028   -0.00001
 59 Cu    0.00046    0.00298   -0.01146
 60 Cu   -0.00274   -0.00023   -0.00127
 61 Cu   -0.00148   -0.00826   -0.00095
 62 Cu    0.00060    0.00280   -0.00115
 63 Cu   -0.00233    0.00034   -0.00858
 64 Cu    0.00070    0.00284   -0.00554
 65 Cu   -0.00016    0.00396   -0.00773
 66 Cu    0.00021    0.00376   -0.00217
 67 Cu    0.00030    0.00327    0.00377
 68 Cu    0.00070    0.00013   -0.00355
 69 Cu   -0.00157    0.00132   -0.00189
 70 Cu    0.00716    0.00111   -0.00750
 71 Cu   -0.00003   -0.00213   -0.01191
 72 Cl    0.00010   -0.00312    0.00502
 73 Cl   -0.00513   -0.00101    0.00620
 74 Cl   -0.00621   -0.00477   -0.02267
 75 Cl    0.00019    0.00319   -0.00093
 76 Cl    0.00488    0.00107   -0.00164
 77 Cl    0.00642    0.00483    0.02698

Timing:                                      incl.     excl.
-------------------------------------------------------------------
Density initialized from wave functions:    80.505    80.504   0.4% |
 Symmetrize density:                         0.001     0.001   0.0% |
Forces:                                    415.690   415.690   2.0% ||
Hamiltonian:                               132.874     0.276   0.0% |
 Atomic:                                     4.867     1.141   0.0% |
  XC Correction:                             3.726     3.726   0.0% |
 Calculate atomic Hamiltonians:             37.761    37.761   0.2% |
 Communicate:                                2.078     2.078   0.0% |
 Initialize Hamiltonian:                     0.002     0.002   0.0% |
 Poisson:                                    0.105     0.105   0.0% |
 XC 3D grid:                                87.785    13.205   0.1% |
  VdW-DF integral:                          74.581     2.923   0.0% |
   Convolution:                              4.610     4.610   0.0% |
   FFT:                                      2.432     2.432   0.0% |
   gather:                                  25.972    25.972   0.1% |
   hmm1:                                     1.457     1.457   0.0% |
   hmm2:                                     3.589     3.589   0.0% |
   iFFT:                                     2.485     2.485   0.0% |
   potential:                               25.692     0.363   0.0% |
    collect:                                 3.902     3.902   0.0% |
    p1:                                     11.841    11.841   0.1% |
    p2:                                      4.996     4.996   0.0% |
    sum:                                     4.590     4.590   0.0% |
   splines:                                  5.422     5.422   0.0% |
LCAO initialization:                       369.378     0.519   0.0% |
 LCAO eigensolver:                          17.418     0.003   0.0% |
  Blacs Orbital Layouts:                     1.320     0.002   0.0% |
   General diagonalize:                      1.300     1.300   0.0% |
   Redistribute coefs:                       0.011     0.011   0.0% |
   Send coefs to domains:                    0.007     0.007   0.0% |
  Calculate projections:                     0.021     0.021   0.0% |
  Distribute overlap matrix:                15.634     0.002   0.0% |
   Scalapack redistribute:                   0.026     0.026   0.0% |
   blocked summation:                       15.606    15.606   0.1% |
  Potential matrix:                          0.241     0.241   0.0% |
  SparseAtomicCorrection:                    0.030     0.030   0.0% |
  Sum over cells:                            0.170     0.170   0.0% |
 LCAO to grid:                             348.080   348.080   1.6% ||
 Set positions (LCAO WFS):                   3.361     0.040   0.0% |
  Basic WFS set positions:                   0.003     0.003   0.0% |
  Basis functions set positions:             0.000     0.000   0.0% |
  P tci:                                     0.043     0.043   0.0% |
  ST tci:                                    0.575     0.575   0.0% |
  Scalapack redistribute:                    0.051     0.051   0.0% |
  blocked summation:                         2.451     2.451   0.0% |
  mktci:                                     0.198     0.198   0.0% |
PWDescriptor:                                0.799     0.799   0.0% |
Redistribute:                                0.025     0.025   0.0% |
SCF-cycle:                               20094.579   627.260   3.0% ||
 Davidson:                               15409.488  4136.940  19.5% |-------|
  Apply H:                                1356.997  1330.644   6.3% |--|
   HMM T:                                   26.353    26.353   0.1% |
  Subspace diag:                          2567.591     0.063   0.0% |
   calc_h_matrix:                         1817.442   468.239   2.2% ||
    Apply H:                              1349.203  1320.833   6.2% |-|
     HMM T:                                 28.370    28.370   0.1% |
   diagonalize:                             88.895    88.895   0.4% |
   rotate_psi:                             661.192   661.192   3.1% ||
  calc. matrices:                         5570.861  2931.839  13.8% |-----|
   Apply H:                               2639.023  2586.889  12.2% |----|
    HMM T:                                  52.134    52.134   0.2% |
  diagonalize:                             563.924   563.924   2.7% ||
  rotate_psi:                             1213.175  1213.175   5.7% |-|
 Density:                                 1597.297     0.013   0.0% |
  Atomic density matrices:                   7.079     7.079   0.0% |
  Mix:                                     818.121   818.121   3.9% |-|
  Multipole moments:                         0.302     0.302   0.0% |
  Pseudo density:                          771.782   771.770   3.6% ||
   Symmetrize density:                       0.012     0.012   0.0% |
 Hamiltonian:                             2373.465     4.426   0.0% |
  Atomic:                                  101.871    37.691   0.2% |
   XC Correction:                           64.180    64.180   0.3% |
  Calculate atomic Hamiltonians:           686.568   686.568   3.2% ||
  Communicate:                              52.956    52.956   0.2% |
  Poisson:                                   1.613     1.613   0.0% |
  XC 3D grid:                             1526.032   219.861   1.0% |
   VdW-DF integral:                       1306.170    53.939   0.3% |
    Convolution:                            83.934    83.934   0.4% |
    FFT:                                    41.686    41.686   0.2% |
    gather:                                513.066   513.066   2.4% ||
    hmm1:                                   26.136    26.136   0.1% |
    hmm2:                                   62.116    62.116   0.3% |
    iFFT:                                   45.379    45.379   0.2% |
    potential:                             479.912     6.189   0.0% |
     collect:                               74.264    74.264   0.3% |
     p1:                                   215.190   215.190   1.0% |
     p2:                                    88.023    88.023   0.4% |
     sum:                                   96.247    96.247   0.5% |
    splines:                                 0.003     0.003   0.0% |
 Orthonormalize:                            87.069     0.006   0.0% |
  calc_s_matrix:                            12.397    12.397   0.1% |
  inverse-cholesky:                          2.633     2.633   0.0% |
  projections:                              54.293    54.293   0.3% |
  rotate_psi_s:                             17.741    17.741   0.1% |
Set symmetry:                                0.001     0.001   0.0% |
Other:                                     139.480   139.480   0.7% |
-------------------------------------------------------------------
Total:                                             21233.332 100.0%

Memory usage: 1.52 GiB
Date: Sun Oct  9 04:56:32 2022
