
  ___ ___ ___ _ _ _  
 |   |   |_  | | | | 
 | | | | | . | | | | 
 |__ |  _|___|_____|  22.1.0
 |___|_|             

User:   thorkong@node026.cluster
Date:   Mon Oct 17 09:49:18 2022
Arch:   x86_64
Pid:    34120
Python: 3.10.5
gpaw:   /groups/kemi/thorkong/miniconda3/envs/gpaw22/lib/python3.10/site-packages/gpaw
_gpaw:  /groups/kemi/thorkong/miniconda3/envs/gpaw22/lib/python3.10/site-packages/
        _gpaw.cpython-310-x86_64-linux-gnu.so
ase:    /groups/kemi/thorkong/miniconda3/envs/gpaw22/lib/python3.10/site-packages/ase (version 3.22.1)
numpy:  /groups/kemi/thorkong/miniconda3/envs/gpaw22/lib/python3.10/site-packages/numpy (version 1.23.0)
scipy:  /groups/kemi/thorkong/miniconda3/envs/gpaw22/lib/python3.10/site-packages/scipy (version 1.8.1)
libxc:  5.2.3
units:  Angstrom and eV
cores: 32
OpenMP: True
OMP_NUM_THREADS: 1

Input parameters:
  basis: dzp
  kpts: [4 4 1]
  mode: {ecut: 600.0,
         name: pw}
  xc: BEEF-vdW

System changes: positions, numbers, cell, pbc, initial_charges, initial_magmoms 

Initialize ...

Cu-setup:
  name: Copper
  id: f1c4d45d90492f1bbfdcb091e8418fdf
  Z: 29.0
  valence: 11
  core: 18
  charge: 0.0
  file: /groups/kemi/thorkong/miniconda3/envs/gpaw22/share/gpaw/Cu.PBE.gz
  compensation charges: gauss, rc=0.33, lmax=2
  cutoffs: 2.06(filt), 2.43(core),
  valence states:
                energy  radius
    4s(1.00)    -4.609   1.164
    4p(0.00)    -0.698   1.164
    3d(10.00)    -5.039   1.058
    *s          22.603   1.164
    *p          26.513   1.164
    *d          22.172   1.058

  LCAO basis set for Cu:
    Name: dzp
    File: /groups/kemi/thorkong/miniconda3/envs/gpaw22/share/gpaw/Cu.dzp.basis.gz
    Number of radial functions: 5
    Number of spherical harmonics: 15
      l=0, rc=8.9688 Bohr: 4s-sz confined orbital
      l=2, rc=5.1719 Bohr: 3d-sz confined orbital
      l=0, rc=5.3281 Bohr: 4s-dz split-valence wave
      l=2, rc=3.1406 Bohr: 3d-dz split-valence wave
      l=1, rc=8.9688 Bohr: p-type Gaussian polarization

Cl-setup:
  name: Chlorine
  id: 726897f06f34e53cf8e33b5885a02604
  Z: 17.0
  valence: 7
  core: 10
  charge: 0.0
  file: /groups/kemi/thorkong/miniconda3/envs/gpaw22/share/gpaw/Cl.PBE.gz
  compensation charges: gauss, rc=0.25, lmax=2
  cutoffs: 1.40(filt), 1.49(core),
  valence states:
                energy  radius
    3s(2.00)   -20.689   0.794
    3p(5.00)    -8.594   0.794
    *s           6.523   0.794
    *p          18.617   0.794
    *d           0.000   0.794

  LCAO basis set for Cl:
    Name: dzp
    File: /groups/kemi/thorkong/miniconda3/envs/gpaw22/share/gpaw/Cl.dzp.basis.gz
    Number of radial functions: 5
    Number of spherical harmonics: 13
      l=0, rc=5.1719 Bohr: 3s-sz confined orbital
      l=1, rc=6.2656 Bohr: 3p-sz confined orbital
      l=0, rc=2.8281 Bohr: 3s-dz split-valence wave
      l=1, rc=3.5156 Bohr: 3p-dz split-valence wave
      l=2, rc=6.2656 Bohr: d-type Gaussian polarization

Reference energy: -2531597.994586

Spin-paired calculation

Convergence criteria:
 Maximum [total energy] change in last 3 cyles: 0.0005 eV / electron
 Maximum integral of absolute [dens]ity change: 0.0001 electrons / valence electron
 Maximum integral of absolute [eigenst]ate change: 4e-08 eV^2 / valence electron
 Maximum number of scf [iter]ations: 333
 (Square brackets indicate name in SCF output, whereas a 'c' in
 the SCF output indicates the quantity has converged.)

Symmetries present (total): 1

  ( 1  0  0)
  ( 0  1  0)
  ( 0  0  1)

16 k-points: 4 x 4 x 1 Monkhorst-Pack grid
8 k-points in the irreducible part of the Brillouin zone
       k-points in crystal coordinates                weights
   0:     0.12500000   -0.37500000    0.00000000          2/16
   1:     0.12500000   -0.12500000    0.00000000          2/16
   2:     0.12500000    0.12500000    0.00000000          2/16
   3:     0.12500000    0.37500000    0.00000000          2/16
   4:     0.37500000   -0.37500000    0.00000000          2/16
   5:     0.37500000   -0.12500000    0.00000000          2/16
   6:     0.37500000    0.12500000    0.00000000          2/16
   7:     0.37500000    0.37500000    0.00000000          2/16

Wave functions: Plane wave expansion
  Cutoff energy: 600.000 eV
  Number of coefficients (min, max): 54614, 54705
  Pulay-stress correction: 0.000000 eV/Ang^3 (de/decut=0.000000)
  Using FFTW library
  ScaLapack parameters: grid=2x2, blocksize=64
  Wavefunction extrapolation:
    Improved wavefunction reuse through dual PAW basis 

Occupation numbers: Fermi-Dirac: width=0.1000 eV
 

Eigensolver
   Davidson(niter=2) 

Densities:
  Coarse grid: 45*45*175 grid
  Fine grid: 90*90*350 grid
  Total Charge: 0.000000 

Density mixing:
  Method: separate
  Backend: pulay
  Linear mixing parameter: 0.05
  Mixing with 5 old densities
  Damping of long wave oscillations: 50 

Hamiltonian:
  XC and Coulomb potentials evaluated on a 90*90*350 grid
  Using the BEEF-vdW Exchange-Correlation functional
  External potential:
    NoExternalPotential
 

XC parameters: BEEF-vdW with 2 nearest neighbor stencil

Memory estimate:
  Process memory now: 241.00 MiB
  Calculator: 757.84 MiB
    Density: 42.61 MiB
      Arrays: 17.67 MiB
      Localized functions: 18.14 MiB
      Mixer: 6.80 MiB
    Hamiltonian: 12.00 MiB
      Arrays: 11.56 MiB
      XC: 0.00 MiB
      Poisson: 0.00 MiB
      vbar: 0.44 MiB
    Wavefunctions: 703.23 MiB
      Arrays psit_nG: 328.88 MiB
      Eigensolver: 356.76 MiB
      Projections: 1.62 MiB
      Projectors: 2.09 MiB
      PW-descriptor: 13.88 MiB

Total number of cores used: 32
Parallelization over k-points: 8
Domain decomposition: 1 x 1 x 4
                      2 x 2 x 8 (xc only)

Number of atoms: 62
Number of atomic orbitals: 914
Number of bands in calculation: 394
Number of valence electrons: 650
Bands to converge: occupied

... initialized

Initializing position-dependent things.

Density initialized from atomic densities
Creating initial wave functions:
  394 bands from LCAO basis set

                                              
                                              
                                              
                                              
                     Cl            Cl         
                                              
                       Cl                     
            Cl          Cu    Cu     Cu       
                   Cu     Cu    Cu            
               Cu    Cu     Cu                
                    Cu     Cu    Cu           
                Cu    Cu    Cu                
           Cu    Cu     Cu                    
                Cu     Cu    Cu               
            Cu    Cu     Cu                   
       Cu     Cu        Cu    Cu     Cu       
                   CCu    Cu    Cu            
               Cu    Cu     Cu                
                    Cu     Cu    Cu           
                Cu    Cu    Cu                
           Cu    Cu     Cu                    
                Cu     Cu    Cu               
            Cu    Cu     Cu                   
       Cu     Cu    Cu          Cl            
                     Cl                       
                                              
         Cl            Cl                     
                                              
                                              
                                              
                                              

Positions:
   0 Cu     2.884162   -0.011729   10.033678    ( 0.0000,  0.0000,  0.0000)
   1 Cu     4.175487    2.207390    9.968025    ( 0.0000,  0.0000,  0.0000)
   2 Cu     0.268779    0.005327   10.035957    ( 0.0000,  0.0000,  0.0000)
   3 Cu     1.563079    2.250160   10.040939    ( 0.0000,  0.0000,  0.0000)
   4 Cu     2.905835    3.013667   12.132731    ( 0.0000,  0.0000,  0.0000)
   5 Cu     1.587256    0.751197   12.155983    ( 0.0000,  0.0000,  0.0000)
   6 Cu     5.501600    3.021336   12.124235    ( 0.0000,  0.0000,  0.0000)
   7 Cu     4.203724    0.772150   12.120007    ( 0.0000,  0.0000,  0.0000)
   8 Cu     5.509809    1.511263   14.273560    ( 0.0000,  0.0000,  0.0000)
   9 Cu     6.817749    3.779201   14.272965    ( 0.0000,  0.0000,  0.0000)
  10 Cu     2.895657    1.507106   14.282845    ( 0.0000,  0.0000,  0.0000)
  11 Cu     4.204745    3.779097   14.275593    ( 0.0000,  0.0000,  0.0000)
  12 Cu     2.898323   -0.006205   16.439255    ( 0.0000,  0.0000,  0.0000)
  13 Cu     4.202828    2.263486   16.411249    ( 0.0000,  0.0000,  0.0000)
  14 Cu     0.271173   -0.001683   16.415015    ( 0.0000,  0.0000,  0.0000)
  15 Cu     1.580207    2.267720   16.418056    ( 0.0000,  0.0000,  0.0000)
  16 Cu     2.898773    3.019517   18.534881    ( 0.0000,  0.0000,  0.0000)
  17 Cu     1.574509    0.759578   18.535562    ( 0.0000,  0.0000,  0.0000)
  18 Cu     5.517461    3.017381   18.557838    ( 0.0000,  0.0000,  0.0000)
  19 Cu     4.218777    0.769327   18.565915    ( 0.0000,  0.0000,  0.0000)
  20 Cu     5.482458    1.472743   20.721328    ( 0.0000,  0.0000,  0.0000)
  21 Cu     6.840691    3.826186   20.718062    ( 0.0000,  0.0000,  0.0000)
  22 Cu     2.872766    1.512688   20.651496    ( 0.0000,  0.0000,  0.0000)
  23 Cu     4.179191    3.794081   20.647081    ( 0.0000,  0.0000,  0.0000)
  24 Cu     5.533098    4.559222    9.954112    ( 0.0000,  0.0000,  0.0000)
  25 Cu     2.867968    4.534051   10.029210    ( 0.0000,  0.0000,  0.0000)
  26 Cu     4.213127    5.276205   12.126541    ( 0.0000,  0.0000,  0.0000)
  27 Cu     6.799507    5.268601   12.115394    ( 0.0000,  0.0000,  0.0000)
  28 Cu     8.121886    6.047639   14.244202    ( 0.0000,  0.0000,  0.0000)
  29 Cu     5.516666    6.046671   14.278211    ( 0.0000,  0.0000,  0.0000)
  30 Cu     5.511110    4.531825   16.410270    ( 0.0000,  0.0000,  0.0000)
  31 Cu     2.888634    4.532926   16.406558    ( 0.0000,  0.0000,  0.0000)
  32 Cu     4.204789    5.283723   18.534523    ( 0.0000,  0.0000,  0.0000)
  33 Cu     6.814487    5.265823   18.565627    ( 0.0000,  0.0000,  0.0000)
  34 Cu     8.131354    6.045561   20.650058    ( 0.0000,  0.0000,  0.0000)
  35 Cu     5.501317    6.065983   20.648502    ( 0.0000,  0.0000,  0.0000)
  36 Cu     5.515639   -0.030915   10.037620    ( 0.0000,  0.0000,  0.0000)
  37 Cu     6.838300    2.241957   10.038361    ( 0.0000,  0.0000,  0.0000)
  38 Cu     8.121401    3.021170   12.150082    ( 0.0000,  0.0000,  0.0000)
  39 Cu     6.815400    0.755845   12.149679    ( 0.0000,  0.0000,  0.0000)
  40 Cu     8.132578    1.510559   14.278234    ( 0.0000,  0.0000,  0.0000)
  41 Cu     9.440817    3.775125   14.268637    ( 0.0000,  0.0000,  0.0000)
  42 Cu     5.504098   -0.004613   16.403245    ( 0.0000,  0.0000,  0.0000)
  43 Cu     6.816730    2.264183   16.407976    ( 0.0000,  0.0000,  0.0000)
  44 Cu     8.113114    3.026556   18.553628    ( 0.0000,  0.0000,  0.0000)
  45 Cu     6.806143    0.763216   18.553497    ( 0.0000,  0.0000,  0.0000)
  46 Cu     8.148557    1.500971   20.654047    ( 0.0000,  0.0000,  0.0000)
  47 Cu     9.453486    3.785452   20.645604    ( 0.0000,  0.0000,  0.0000)
  48 Cu     8.143342    4.522704   10.030314    ( 0.0000,  0.0000,  0.0000)
  49 Cu     9.444142    5.279553   12.148158    ( 0.0000,  0.0000,  0.0000)
  50 Cu    10.750397    6.043904   14.266863    ( 0.0000,  0.0000,  0.0000)
  51 Cu     8.125450    4.536072   16.403731    ( 0.0000,  0.0000,  0.0000)
  52 Cu     9.432612    5.289470   18.528114    ( 0.0000,  0.0000,  0.0000)
  53 Cu    10.748665    6.030225   20.646267    ( 0.0000,  0.0000,  0.0000)
  54 Cl     6.147134    2.664301   22.667231    ( 0.0000,  0.0000,  0.0000)
  55 Cl     4.853098    3.366848    8.014863    ( 0.0000,  0.0000,  0.0000)
  56 Cl    10.101076    4.907838   23.055936    ( 0.0000,  0.0000,  0.0000)
  57 Cl     0.915929    1.127744    7.628448    ( 0.0000,  0.0000,  0.0000)
  58 Cl     8.857645    5.743262    7.623330    ( 0.0000,  0.0000,  0.0000)
  59 Cl     2.077612    0.292715   23.096412    ( 0.0000,  0.0000,  0.0000)
  60 Cl     4.840254    4.930032   23.057792    ( 0.0000,  0.0000,  0.0000)
  61 Cl     6.176970    1.105521    7.627990    ( 0.0000,  0.0000,  0.0000)

Unit cell:
           periodic     x           y           z      points  spacing
  1. axis:    yes    7.851007    0.000000    0.000000    45     0.1511
  2. axis:    yes    3.925503    6.799171    0.000000    45     0.1511
  3. axis:    yes    0.000000    0.000000   30.683867   175     0.1753

  Lengths:   7.851007   7.851006  30.683867
  Angles:   90.000000  90.000000  60.000001

Effective grid spacing dv^(1/3) = 0.1666

     iter     time        total  log10-change:
                         energy  eigst   dens
iter:   1 09:55:18 -4689.588162
iter:   2 09:56:22 -4667.503264  +1.13  -0.77
iter:   3 09:57:18 -4521.131274  +0.62  -0.85
iter:   4 09:58:09 -4419.632559  -0.87  -1.04
iter:   5 09:59:02 -4534.880025  -0.43  -1.34
iter:   6 09:59:48 -4380.363644  -1.08  -1.07
iter:   7 10:00:39 -4387.244835  -2.81  -1.54
iter:   8 10:01:32 -4400.352888  -2.29  -1.50
iter:   9 10:02:18 -4385.518652  -2.10  -1.46
iter:  10 10:03:10 -4380.751338  -2.32  -1.60
iter:  11 10:04:19 -4379.045652  -2.44  -1.61
iter:  12 10:05:11 -4378.368678  -3.38  -1.63
iter:  13 10:05:58 -4377.641269  -2.86  -1.64
iter:  14 10:06:57 -4377.813432  -3.08  -1.68
iter:  15 10:07:58 -4377.112066  -2.10  -1.71
iter:  16 10:08:53 -4379.772932  -2.91  -2.06
iter:  17 10:10:06 -4379.219728  -4.05  -1.88
iter:  18 10:10:55 -4376.875205  -2.77  -1.89
iter:  19 10:11:49 -4376.859787  -3.15  -2.05
iter:  20 10:12:44 -4376.727119c -3.51  -2.15
iter:  21 10:13:58 -4377.094806  -3.16  -2.19
iter:  22 10:14:53 -4377.044151  -3.66  -2.15
iter:  23 10:16:03 -4376.446064  -3.77  -2.21
iter:  24 10:17:05 -4376.481047  -4.08  -2.74
iter:  25 10:18:07 -4376.455684c -4.45  -2.67
iter:  26 10:18:59 -4376.447590c -4.37  -2.79
iter:  27 10:19:46 -4376.444944c -5.15  -2.81
iter:  28 10:20:46 -4376.428589c -5.27  -2.82
iter:  29 10:21:44 -4376.424120c -4.67  -2.91
iter:  30 10:22:46 -4376.461683c -4.58  -2.94
iter:  31 10:23:35 -4376.435668c -5.66  -2.76
iter:  32 10:24:35 -4376.412430c -5.25  -2.92
iter:  33 10:25:33 -4376.413867c -5.30  -3.42
iter:  34 10:26:24 -4376.412848c -6.40  -3.48
iter:  35 10:27:12 -4376.412187c -6.09  -3.66
iter:  36 10:28:05 -4376.412419c -6.51  -3.77
iter:  37 10:28:57 -4376.412063c -6.49  -3.83
iter:  38 10:29:52 -4376.412303c -6.60  -3.93
iter:  39 10:30:44 -4376.412219c -6.43  -4.16c
iter:  40 10:31:37 -4376.412279c -6.87  -4.04c
iter:  41 10:33:18 -4376.412189c -7.15  -4.41c
iter:  42 10:34:43 -4376.412169c -7.81c -4.62c

Converged after 42 iterations.

Dipole moment: (-17.853481, -11.362695, 0.020659) |e|*Ang

Energy contributions relative to reference atoms: (reference = -2531597.994586)

Kinetic:       +450.469852
Potential:     -485.991047
External:        +0.000000
XC:            -4339.708225
Entropy (-ST):   -0.849527
Local:           -0.757986
--------------------------
Free energy:   -4376.836933
Extrapolated:  -4376.412169

Showing only first 2 kpts
 Kpt  Band  Eigenvalues  Occupancy
  0   323      0.06949    1.02175
  0   324      0.08726    0.93304
  0   325      0.09574    0.89094
  0   326      0.13698    0.69441

  1   323     -0.24103    1.91772
  1   324     -0.18873    1.86500
  1   325      0.02463    1.24122
  1   326      0.06945    1.02195


Fermi level: 0.07384

No gap

Forces in eV/Ang:
  0 Cu   -0.01311    0.01973   -0.12572
  1 Cu   -0.07703    0.16933   -0.01962
  2 Cu    0.18554   -0.06121   -0.39029
  3 Cu    0.05167   -0.07517   -0.50510
  4 Cu   -0.06552   -0.03741   -0.07524
  5 Cu   -0.01740   -0.00882   -0.01087
  6 Cu    0.03784   -0.02186   -0.01140
  7 Cu    0.01482   -0.03843   -0.06745
  8 Cu    0.00131    0.00200    0.00608
  9 Cu    0.01076   -0.01154    0.00836
 10 Cu    0.00088   -0.01042   -0.01075
 11 Cu    0.00037   -0.00038   -0.05793
 12 Cu   -0.01232    0.00259   -0.03593
 13 Cu   -0.01069    0.01049   -0.00886
 14 Cu    0.01727    0.01216   -0.05341
 15 Cu    0.01284   -0.01281   -0.02628
 16 Cu   -0.02298    0.01005    0.13625
 17 Cu    0.00906   -0.04654    0.03783
 18 Cu   -0.03728    0.02507    0.01646
 19 Cu   -0.03212   -0.02435    0.04388
 20 Cu    0.11222    0.12828    0.16192
 21 Cu    0.08028   -0.16242    0.01222
 22 Cu    0.01760   -0.06564    0.33967
 23 Cu    0.11350   -0.05722    0.23647
 24 Cu   -0.11486   -0.12095   -0.15236
 25 Cu    0.16198   -0.09565   -0.16261
 26 Cu   -0.01786    0.09466   -0.08709
 27 Cu    0.02872    0.02274   -0.04007
 28 Cu    0.01232   -0.00222    0.03654
 29 Cu    0.00576   -0.00309    0.01163
 30 Cu   -0.00260   -0.00505   -0.00755
 31 Cu    0.00620   -0.01671   -0.00963
 32 Cu   -0.01129    0.05526    0.06527
 33 Cu   -0.01476    0.04347    0.06762
 34 Cu    0.01924   -0.01790    0.10669
 35 Cu    0.04634   -0.04888    0.42684
 36 Cu   -0.03670    0.05935   -0.47411
 37 Cu   -0.12433    0.04845   -0.26400
 38 Cu    0.01560   -0.00748   -0.14140
 39 Cu    0.00427   -0.05625   -0.06643
 40 Cu   -0.00467    0.01210    0.00328
 41 Cu   -0.01548    0.01053    0.02426
 42 Cu   -0.00584    0.00481   -0.00904
 43 Cu   -0.00079   -0.00347    0.05551
 44 Cu    0.06827    0.03363    0.07244
 45 Cu    0.02140   -0.09723    0.09150
 46 Cu   -0.15125    0.09148    0.15753
 47 Cu   -0.04674    0.07680    0.50963
 48 Cu   -0.01160    0.07776   -0.39630
 49 Cu   -0.00813    0.04441   -0.03684
 50 Cu   -0.02048   -0.01256    0.05908
 51 Cu   -0.00520    0.00541    0.00556
 52 Cu    0.01930    0.00048    0.00646
 53 Cu   -0.19032    0.06035    0.38957
 54 Cl    0.89455   -1.75670   -0.73651
 55 Cl   -0.95951    1.76396    0.75938
 56 Cl   -1.76669   -0.19027   -1.20930
 57 Cl    1.66560    0.16766    1.18014
 58 Cl   -0.98573   -1.49114    0.93938
 59 Cl    0.90228    1.47605   -0.82605
 60 Cl   -0.08409    0.44338    0.10242
 61 Cl    0.32767   -0.41802   -0.05705

System changes: positions 

Initializing position-dependent things.

Density initialized from wave functions
                                              
                                              
                                              
                                              
                     Cl                       
                                  Cl          
                       Cl                     
            Cl          Cu    Cu     Cu       
                   Cu     Cu    Cu            
               Cu    Cu     Cu                
                    Cu     Cu    Cu           
                Cu    Cu    Cu                
           Cu    Cu     Cu                    
                Cu     Cu    Cu               
            Cu    Cu     Cu                   
       Cu     Cu    Cu  Cu    Cu     Cu       
                   Cu     Cu    Cu            
               Cu    Cu     Cu                
                    Cu     Cu    Cu           
                Cu    Cu    Cu                
           Cu    Cu     Cu                    
                Cu     Cu    Cu               
            Cu    Cu     Cu                   
       Cu     Cu    Cu          Cl            
                    Cl                        
                                              
          Cl           Cl                     
                                              
                                              
                                              
                                              

Positions:
   0 Cu     2.882942   -0.009893   10.021979    ( 0.0000,  0.0000,  0.0000)
   1 Cu     4.168319    2.223146    9.966199    ( 0.0000,  0.0000,  0.0000)
   2 Cu     0.286043   -0.000369    9.999640    ( 0.0000,  0.0000,  0.0000)
   3 Cu     1.567887    2.243165    9.993939    ( 0.0000,  0.0000,  0.0000)
   4 Cu     2.899738    3.010186   12.125730    ( 0.0000,  0.0000,  0.0000)
   5 Cu     1.585637    0.750377   12.154971    ( 0.0000,  0.0000,  0.0000)
   6 Cu     5.505121    3.019302   12.123174    ( 0.0000,  0.0000,  0.0000)
   7 Cu     4.205103    0.768574   12.113731    ( 0.0000,  0.0000,  0.0000)
   8 Cu     5.509931    1.511449   14.274126    ( 0.0000,  0.0000,  0.0000)
   9 Cu     6.818750    3.778128   14.273743    ( 0.0000,  0.0000,  0.0000)
  10 Cu     2.895739    1.506137   14.281845    ( 0.0000,  0.0000,  0.0000)
  11 Cu     4.204780    3.779062   14.270202    ( 0.0000,  0.0000,  0.0000)
  12 Cu     2.897176   -0.005964   16.435912    ( 0.0000,  0.0000,  0.0000)
  13 Cu     4.201833    2.264462   16.410424    ( 0.0000,  0.0000,  0.0000)
  14 Cu     0.272780   -0.000552   16.410045    ( 0.0000,  0.0000,  0.0000)
  15 Cu     1.581401    2.266528   16.415611    ( 0.0000,  0.0000,  0.0000)
  16 Cu     2.896634    3.020452   18.547559    ( 0.0000,  0.0000,  0.0000)
  17 Cu     1.575352    0.755248   18.539082    ( 0.0000,  0.0000,  0.0000)
  18 Cu     5.513992    3.019713   18.559370    ( 0.0000,  0.0000,  0.0000)
  19 Cu     4.215788    0.767062   18.569998    ( 0.0000,  0.0000,  0.0000)
  20 Cu     5.492900    1.484680   20.736395    ( 0.0000,  0.0000,  0.0000)
  21 Cu     6.848161    3.811073   20.719199    ( 0.0000,  0.0000,  0.0000)
  22 Cu     2.874404    1.506580   20.683103    ( 0.0000,  0.0000,  0.0000)
  23 Cu     4.189752    3.788756   20.669085    ( 0.0000,  0.0000,  0.0000)
  24 Cu     5.522410    4.547968    9.939935    ( 0.0000,  0.0000,  0.0000)
  25 Cu     2.883040    4.525151   10.014079    ( 0.0000,  0.0000,  0.0000)
  26 Cu     4.211465    5.285014   12.118437    ( 0.0000,  0.0000,  0.0000)
  27 Cu     6.802180    5.270717   12.111666    ( 0.0000,  0.0000,  0.0000)
  28 Cu     8.123032    6.047432   14.247602    ( 0.0000,  0.0000,  0.0000)
  29 Cu     5.517202    6.046384   14.279293    ( 0.0000,  0.0000,  0.0000)
  30 Cu     5.510868    4.531355   16.409568    ( 0.0000,  0.0000,  0.0000)
  31 Cu     2.889211    4.531372   16.405662    ( 0.0000,  0.0000,  0.0000)
  32 Cu     4.203738    5.288865   18.540596    ( 0.0000,  0.0000,  0.0000)
  33 Cu     6.813113    5.269868   18.571919    ( 0.0000,  0.0000,  0.0000)
  34 Cu     8.133144    6.043895   20.659986    ( 0.0000,  0.0000,  0.0000)
  35 Cu     5.505629    6.061434   20.688220    ( 0.0000,  0.0000,  0.0000)
  36 Cu     5.512224   -0.025392    9.993504    ( 0.0000,  0.0000,  0.0000)
  37 Cu     6.826731    2.246465   10.013796    ( 0.0000,  0.0000,  0.0000)
  38 Cu     8.122853    3.020474   12.136925    ( 0.0000,  0.0000,  0.0000)
  39 Cu     6.815798    0.750611   12.143497    ( 0.0000,  0.0000,  0.0000)
  40 Cu     8.132143    1.511685   14.278540    ( 0.0000,  0.0000,  0.0000)
  41 Cu     9.439377    3.776105   14.270895    ( 0.0000,  0.0000,  0.0000)
  42 Cu     5.503555   -0.004165   16.402403    ( 0.0000,  0.0000,  0.0000)
  43 Cu     6.816656    2.263860   16.413141    ( 0.0000,  0.0000,  0.0000)
  44 Cu     8.119467    3.029685   18.560369    ( 0.0000,  0.0000,  0.0000)
  45 Cu     6.808135    0.754169   18.562011    ( 0.0000,  0.0000,  0.0000)
  46 Cu     8.134483    1.509483   20.668705    ( 0.0000,  0.0000,  0.0000)
  47 Cu     9.449137    3.792598   20.693025    ( 0.0000,  0.0000,  0.0000)
  48 Cu     8.142263    4.529940    9.993438    ( 0.0000,  0.0000,  0.0000)
  49 Cu     9.443386    5.283686   12.144730    ( 0.0000,  0.0000,  0.0000)
  50 Cu    10.748491    6.042735   14.272361    ( 0.0000,  0.0000,  0.0000)
  51 Cu     8.124966    4.536576   16.404248    ( 0.0000,  0.0000,  0.0000)
  52 Cu     9.434408    5.289514   18.528715    ( 0.0000,  0.0000,  0.0000)
  53 Cu    10.730955    6.035841   20.682517    ( 0.0000,  0.0000,  0.0000)
  54 Cl     6.230373    2.500839   22.598698    ( 0.0000,  0.0000,  0.0000)
  55 Cl     4.763815    3.530985    8.085524    ( 0.0000,  0.0000,  0.0000)
  56 Cl     9.936684    4.890134   22.943409    ( 0.0000,  0.0000,  0.0000)
  57 Cl     1.070914    1.143344    7.738261    ( 0.0000,  0.0000,  0.0000)
  58 Cl     8.765922    5.604511    7.710740    ( 0.0000,  0.0000,  0.0000)
  59 Cl     2.161570    0.430063   23.019548    ( 0.0000,  0.0000,  0.0000)
  60 Cl     4.832430    4.971289   23.067321    ( 0.0000,  0.0000,  0.0000)
  61 Cl     6.207460    1.066624    7.622682    ( 0.0000,  0.0000,  0.0000)

Unit cell:
           periodic     x           y           z      points  spacing
  1. axis:    yes    7.851007    0.000000    0.000000    45     0.1511
  2. axis:    yes    3.925503    6.799171    0.000000    45     0.1511
  3. axis:    yes    0.000000    0.000000   30.683867   175     0.1753

  Lengths:   7.851007   7.851006  30.683867
  Angles:   90.000000  90.000000  60.000001

Effective grid spacing dv^(1/3) = 0.1666

     iter     time        total  log10-change:
                         energy  eigst   dens
iter:   1 10:36:35 -4399.261336  -1.39
iter:   2 10:37:50 -4390.309949  -1.18  -1.45
iter:   3 10:39:00 -4380.491031  -2.13  -1.79
iter:   4 10:40:03 -4379.947493  -3.43  -2.12
iter:   5 10:41:09 -4379.871442  -3.87  -2.19
iter:   6 10:41:58 -4379.653789c -2.50  -2.19
iter:   7 10:42:47 -4379.126354  -3.17  -2.10
iter:   8 10:43:43 -4379.037070  -4.13  -2.42
iter:   9 10:44:50 -4378.996974c -3.44  -2.50
iter:  10 10:45:56 -4379.064714c -4.63  -2.55
iter:  11 10:46:52 -4379.024648c -4.51  -2.49
iter:  12 10:47:45 -4378.900517c -4.10  -2.52
iter:  13 10:48:38 -4378.901356c -4.49  -2.80
iter:  14 10:49:49 -4378.905915c -4.28  -2.91
iter:  15 10:50:43 -4378.902033c -4.15  -2.81
iter:  16 10:51:45 -4378.880299c -5.08  -3.05
iter:  17 10:52:38 -4378.878921c -6.01  -3.29
iter:  18 10:53:47 -4378.878214c -4.76  -3.35
iter:  19 10:55:01 -4378.877279c -5.55  -3.43
iter:  20 10:55:51 -4378.877049c -5.56  -3.85
iter:  21 10:56:43 -4378.876996c -6.56  -3.97
iter:  22 10:57:37 -4378.877362c -6.87  -3.99
iter:  23 10:58:24 -4378.877069c -6.40  -4.10c
iter:  24 10:59:20 -4378.877141c -6.48  -4.16c
iter:  25 11:00:22 -4378.876697c -6.53  -4.01c
iter:  26 11:01:37 -4378.876958c -7.09  -4.36c
iter:  27 11:02:30 -4378.876969c -8.22c -4.60c

Converged after 27 iterations.

Dipole moment: (-21.446912, -10.309624, 0.008832) |e|*Ang

Energy contributions relative to reference atoms: (reference = -2531597.994586)

Kinetic:       +441.967375
Potential:     -480.167154
External:        +0.000000
XC:            -4339.574613
Entropy (-ST):   -0.742392
Local:           -0.731381
--------------------------
Free energy:   -4379.248165
Extrapolated:  -4378.876969

Showing only first 2 kpts
 Kpt  Band  Eigenvalues  Occupancy
  0   323     -0.03457    1.03900
  0   324      0.01306    0.80348
  0   325      0.04632    0.65002
  0   326      0.06458    0.57261

  1   323     -0.43276    1.96609
  1   324     -0.25237    1.81035
  1   325     -0.11814    1.42755
  1   326     -0.05539    1.14216


Fermi level: -0.02676

No gap

Forces in eV/Ang:
  0 Cu    0.00087    0.02742   -0.16850
  1 Cu    0.00330   -0.00379   -0.03324
  2 Cu    0.04437    0.01859   -0.36046
  3 Cu    0.01744   -0.06185   -0.47125
  4 Cu   -0.08245   -0.02349   -0.07922
  5 Cu   -0.02010    0.00800   -0.07509
  6 Cu    0.03563   -0.00800   -0.02935
  7 Cu    0.02245   -0.03257   -0.09568
  8 Cu    0.00314    0.00032   -0.01574
  9 Cu    0.01366   -0.00481   -0.00815
 10 Cu    0.00489    0.00162   -0.03134
 11 Cu   -0.00146    0.00308   -0.06748
 12 Cu   -0.00590    0.00528   -0.00741
 13 Cu   -0.01421    0.00288    0.00798
 14 Cu    0.00563    0.00374   -0.01774
 15 Cu    0.01408   -0.00363    0.00686
 16 Cu   -0.03479   -0.00556    0.19230
 17 Cu    0.00073   -0.02499    0.12024
 18 Cu   -0.03205    0.00872    0.02801
 19 Cu   -0.01636    0.00943    0.09451
 20 Cu   -0.15243   -0.13430   -0.25850
 21 Cu   -0.00499   -0.00188    0.03678
 22 Cu   -0.03869   -0.07706    0.45174
 23 Cu    0.10281    0.06142    0.34192
 24 Cu    0.15740    0.14164    0.26985
 25 Cu    0.03558   -0.01910   -0.16668
 26 Cu   -0.01368    0.07179   -0.08874
 27 Cu    0.01983   -0.01072   -0.09566
 28 Cu    0.00562   -0.00568    0.00646
 29 Cu    0.00029   -0.01532   -0.01352
 30 Cu   -0.00355   -0.00203    0.01543
 31 Cu    0.01047   -0.01760    0.02529
 32 Cu   -0.01214    0.04793    0.13422
 33 Cu   -0.02097    0.03226    0.08990
 34 Cu    0.00588   -0.02462    0.15361
 35 Cu   -0.04678   -0.10637    0.56776
 36 Cu    0.05499    0.11359   -0.59543
 37 Cu   -0.10829   -0.06596   -0.36234
 38 Cu    0.02797    0.00951   -0.20805
 39 Cu    0.00657   -0.04875   -0.14007
 40 Cu   -0.01026    0.01456   -0.03146
 41 Cu   -0.01608    0.00032   -0.00981
 42 Cu   -0.00112    0.01515    0.01625
 43 Cu    0.00103   -0.00610    0.06631
 44 Cu    0.08218    0.02193    0.07863
 45 Cu    0.01311   -0.07162    0.09202
 46 Cu   -0.02791    0.01690    0.17380
 47 Cu   -0.01398    0.05810    0.48120
 48 Cu    0.03342    0.07694   -0.48605
 49 Cu   -0.00268    0.02375   -0.13053
 50 Cu   -0.00736   -0.00453    0.01956
 51 Cu   -0.00847   -0.00470    0.02746
 52 Cu    0.02073   -0.01365    0.06630
 53 Cu   -0.04768   -0.02004    0.36421
 54 Cl    0.75837   -0.90951   -0.16914
 55 Cl   -0.79477    0.89312    0.16967
 56 Cl   -1.44901   -0.11020   -1.38870
 57 Cl    1.48749    0.10619    1.36370
 58 Cl   -0.93818   -1.45639    1.27216
 59 Cl    0.90693    1.53306   -1.18132
 60 Cl   -0.05193   -0.30122   -0.47709
 61 Cl    0.07252    0.27782    0.54624

System changes: positions 

Initializing position-dependent things.

Density initialized from wave functions
                                              
                                              
                                              
                                              
                     Cl                       
                                  Cl          
                                              
            Cl          Cl    Cu     Cu       
                   Cu     Cu    Cu            
               Cu    Cu     Cu                
                    Cu     Cu    Cu           
               Cu     Cu     Cu               
           Cu    Cu     Cu                    
                Cu     Cu    Cu               
            Cu    Cu     Cu                   
       Cu     Cu    Cu  Cu    Cu     Cu       
                   Cu     Cu    Cu            
               Cu    Cu     Cu                
                    Cu     Cu    Cu           
               Cu     Cu     Cu               
           Cu    Cu     Cu                    
                Cu     Cu    Cu               
            Cu    Cu     Cu                   
       Cu     Cu    Cu         Cl             
                                              
          Cl                                  
                       Cl                     
                                              
                                              
                                              
                                              

Positions:
   0 Cu     2.881721   -0.008057   10.010281    ( 0.0000,  0.0000,  0.0000)
   1 Cu     4.161152    2.238902    9.964373    ( 0.0000,  0.0000,  0.0000)
   2 Cu     0.303307   -0.006065    9.963323    ( 0.0000,  0.0000,  0.0000)
   3 Cu     1.572695    2.236170    9.946939    ( 0.0000,  0.0000,  0.0000)
   4 Cu     2.893642    3.006704   12.118729    ( 0.0000,  0.0000,  0.0000)
   5 Cu     1.584017    0.749556   12.153960    ( 0.0000,  0.0000,  0.0000)
   6 Cu     5.508641    3.017269   12.122114    ( 0.0000,  0.0000,  0.0000)
   7 Cu     4.206482    0.764999   12.107455    ( 0.0000,  0.0000,  0.0000)
   8 Cu     5.510052    1.511635   14.274691    ( 0.0000,  0.0000,  0.0000)
   9 Cu     6.819751    3.777054   14.274521    ( 0.0000,  0.0000,  0.0000)
  10 Cu     2.895821    1.505167   14.280844    ( 0.0000,  0.0000,  0.0000)
  11 Cu     4.204814    3.779027   14.264812    ( 0.0000,  0.0000,  0.0000)
  12 Cu     2.896030   -0.005724   16.432569    ( 0.0000,  0.0000,  0.0000)
  13 Cu     4.200838    2.265438   16.409600    ( 0.0000,  0.0000,  0.0000)
  14 Cu     0.274387    0.000580   16.405075    ( 0.0000,  0.0000,  0.0000)
  15 Cu     1.582596    2.265336   16.413165    ( 0.0000,  0.0000,  0.0000)
  16 Cu     2.894496    3.021387   18.560237    ( 0.0000,  0.0000,  0.0000)
  17 Cu     1.576196    0.750918   18.542601    ( 0.0000,  0.0000,  0.0000)
  18 Cu     5.510524    3.022046   18.560902    ( 0.0000,  0.0000,  0.0000)
  19 Cu     4.212799    0.764796   18.574080    ( 0.0000,  0.0000,  0.0000)
  20 Cu     5.503341    1.496617   20.751462    ( 0.0000,  0.0000,  0.0000)
  21 Cu     6.855631    3.795959   20.720336    ( 0.0000,  0.0000,  0.0000)
  22 Cu     2.876041    1.500472   20.714710    ( 0.0000,  0.0000,  0.0000)
  23 Cu     4.200313    3.783432   20.691088    ( 0.0000,  0.0000,  0.0000)
  24 Cu     5.511722    4.536713    9.925757    ( 0.0000,  0.0000,  0.0000)
  25 Cu     2.898112    4.516251    9.998949    ( 0.0000,  0.0000,  0.0000)
  26 Cu     4.209803    5.293822   12.110334    ( 0.0000,  0.0000,  0.0000)
  27 Cu     6.804852    5.272832   12.107937    ( 0.0000,  0.0000,  0.0000)
  28 Cu     8.124179    6.047225   14.251002    ( 0.0000,  0.0000,  0.0000)
  29 Cu     5.517738    6.046097   14.280375    ( 0.0000,  0.0000,  0.0000)
  30 Cu     5.510626    4.530886   16.408865    ( 0.0000,  0.0000,  0.0000)
  31 Cu     2.889787    4.529817   16.404766    ( 0.0000,  0.0000,  0.0000)
  32 Cu     4.202687    5.294006   18.546670    ( 0.0000,  0.0000,  0.0000)
  33 Cu     6.811739    5.273913   18.578211    ( 0.0000,  0.0000,  0.0000)
  34 Cu     8.134934    6.042230   20.669914    ( 0.0000,  0.0000,  0.0000)
  35 Cu     5.509942    6.056886   20.727937    ( 0.0000,  0.0000,  0.0000)
  36 Cu     5.508810   -0.019870    9.949388    ( 0.0000,  0.0000,  0.0000)
  37 Cu     6.815163    2.250973    9.989230    ( 0.0000,  0.0000,  0.0000)
  38 Cu     8.124305    3.019778   12.123768    ( 0.0000,  0.0000,  0.0000)
  39 Cu     6.816195    0.745377   12.137316    ( 0.0000,  0.0000,  0.0000)
  40 Cu     8.131709    1.512811   14.278845    ( 0.0000,  0.0000,  0.0000)
  41 Cu     9.437937    3.777084   14.273152    ( 0.0000,  0.0000,  0.0000)
  42 Cu     5.503012   -0.003717   16.401562    ( 0.0000,  0.0000,  0.0000)
  43 Cu     6.816582    2.263537   16.418306    ( 0.0000,  0.0000,  0.0000)
  44 Cu     8.125820    3.032814   18.567110    ( 0.0000,  0.0000,  0.0000)
  45 Cu     6.810126    0.745122   18.570525    ( 0.0000,  0.0000,  0.0000)
  46 Cu     8.120409    1.517995   20.683364    ( 0.0000,  0.0000,  0.0000)
  47 Cu     9.444788    3.799745   20.740447    ( 0.0000,  0.0000,  0.0000)
  48 Cu     8.141184    4.537175    9.956562    ( 0.0000,  0.0000,  0.0000)
  49 Cu     9.442630    5.287818   12.141302    ( 0.0000,  0.0000,  0.0000)
  50 Cu    10.746585    6.041566   14.277859    ( 0.0000,  0.0000,  0.0000)
  51 Cu     8.124483    4.537079   16.404766    ( 0.0000,  0.0000,  0.0000)
  52 Cu     9.436204    5.289558   18.529316    ( 0.0000,  0.0000,  0.0000)
  53 Cu    10.713246    6.041457   20.718767    ( 0.0000,  0.0000,  0.0000)
  54 Cl     6.313612    2.337378   22.530165    ( 0.0000,  0.0000,  0.0000)
  55 Cl     4.674532    3.695123    8.156185    ( 0.0000,  0.0000,  0.0000)
  56 Cl     9.772293    4.872429   22.830883    ( 0.0000,  0.0000,  0.0000)
  57 Cl     1.225899    1.158945    7.848074    ( 0.0000,  0.0000,  0.0000)
  58 Cl     8.674198    5.465759    7.798150    ( 0.0000,  0.0000,  0.0000)
  59 Cl     2.245528    0.567410   22.942683    ( 0.0000,  0.0000,  0.0000)
  60 Cl     4.824606    5.012545   23.076851    ( 0.0000,  0.0000,  0.0000)
  61 Cl     6.237950    1.027728    7.617373    ( 0.0000,  0.0000,  0.0000)

Unit cell:
           periodic     x           y           z      points  spacing
  1. axis:    yes    7.851007    0.000000    0.000000    45     0.1511
  2. axis:    yes    3.925503    6.799171    0.000000    45     0.1511
  3. axis:    yes    0.000000    0.000000   30.683867   175     0.1753

  Lengths:   7.851007   7.851006  30.683867
  Angles:   90.000000  90.000000  60.000001

Effective grid spacing dv^(1/3) = 0.1666

     iter     time        total  log10-change:
                         energy  eigst   dens
iter:   1 11:03:51 -4407.340284  -1.33
iter:   2 11:04:38 -4394.256665  -1.02  -1.38
iter:   3 11:05:35 -4382.284162  -1.97  -1.75
iter:   4 11:06:30 -4381.833994  -3.19  -2.18
iter:   5 11:07:56 -4381.661339  -3.59  -2.25
iter:   6 11:08:57 -4381.042533  -2.40  -2.26
iter:   7 11:09:47 -4380.884537  -3.59  -2.32
iter:   8 11:10:49 -4380.915662c -3.50  -2.57
iter:   9 11:11:49 -4380.849717c -3.97  -2.63
iter:  10 11:12:44 -4380.829418c -4.74  -2.76
iter:  11 11:13:32 -4380.810758c -4.56  -2.79
iter:  12 11:14:26 -4380.789666c -4.24  -2.85
iter:  13 11:15:23 -4380.783868c -4.35  -2.84
iter:  14 11:16:16 -4380.784073c -5.31  -2.93
iter:  15 11:17:26 -4380.783336c -4.30  -2.96
iter:  16 11:18:18 -4380.775169c -5.09  -2.92
iter:  17 11:19:14 -4380.758897c -5.27  -3.10
iter:  18 11:19:54 -4380.757051c -6.07  -3.49
iter:  19 11:20:39 -4380.756574c -5.24  -3.53
iter:  20 11:21:30 -4380.756340c -5.97  -3.63
iter:  21 11:22:15 -4380.755932c -6.88  -3.92
iter:  22 11:23:09 -4380.756154c -6.52  -3.99
iter:  23 11:24:02 -4380.756047c -7.25  -4.02c
iter:  24 11:25:00 -4380.756214c -6.66  -4.18c
iter:  25 11:25:53 -4380.756032c -7.31  -4.18c
iter:  26 11:26:45 -4380.756064c -8.33c -4.49c

Converged after 26 iterations.

Dipole moment: (-20.708271, -8.009260, -0.008286) |e|*Ang

Energy contributions relative to reference atoms: (reference = -2531597.994586)

Kinetic:       +442.415568
Potential:     -481.357046
External:        +0.000000
XC:            -4340.786093
Entropy (-ST):   -0.624841
Local:           -0.716072
--------------------------
Free energy:   -4381.068485
Extrapolated:  -4380.756064

Showing only first 2 kpts
 Kpt  Band  Eigenvalues  Occupancy
  0   323     -0.03887    0.96764
  0   324      0.01015    0.72945
  0   325      0.06795    0.48725
  0   326      0.08194    0.43754

  1   323     -0.41993    1.95386
  1   324     -0.25417    1.77952
  1   325     -0.21618    1.69325
  1   326     -0.15789    1.50999


Fermi level: -0.04534

No gap

Forces in eV/Ang:
  0 Cu    0.02628    0.03736   -0.17878
  1 Cu    0.08787   -0.18817   -0.00147
  2 Cu   -0.12814    0.07138   -0.26240
  3 Cu    0.02427    0.05877   -0.20833
  4 Cu   -0.09245   -0.00300   -0.07618
  5 Cu   -0.02157    0.02064   -0.12999
  6 Cu    0.03437    0.00525   -0.04976
  7 Cu    0.02633   -0.02451   -0.12007
  8 Cu    0.00634   -0.00266   -0.03531
  9 Cu    0.01522    0.00103   -0.02115
 10 Cu    0.01065    0.01427   -0.04890
 11 Cu   -0.00441    0.00554   -0.07270
 12 Cu    0.00090    0.00712    0.01743
 13 Cu   -0.01640   -0.00412    0.02145
 14 Cu   -0.00650   -0.00553    0.02016
 15 Cu    0.01303    0.00623    0.03874
 16 Cu   -0.03988   -0.02113    0.23828
 17 Cu   -0.00933    0.00273    0.19311
 18 Cu   -0.02822   -0.00716    0.04139
 19 Cu   -0.00230    0.04043    0.14019
 20 Cu   -0.65330   -0.54039   -1.12266
 21 Cu   -0.09513    0.16870    0.01842
 22 Cu   -0.05725   -0.04329    0.47516
 23 Cu    0.08265    0.17198    0.37506
 24 Cu    0.66684    0.53941    1.11662
 25 Cu   -0.11332    0.07816   -0.10921
 26 Cu   -0.01193    0.04171   -0.07674
 27 Cu    0.01107   -0.04054   -0.14503
 28 Cu   -0.00114   -0.00776   -0.01986
 29 Cu   -0.00490   -0.02865   -0.03866
 30 Cu   -0.00635    0.00202    0.03597
 31 Cu    0.01706   -0.01778    0.05610
 32 Cu   -0.01231    0.03054    0.19464
 33 Cu   -0.02416    0.01969    0.10763
 34 Cu   -0.02665   -0.02726    0.16833
 35 Cu   -0.13147   -0.15742    0.63584
 36 Cu    0.14310    0.16986   -0.62168
 37 Cu   -0.07712   -0.17253   -0.38562
 38 Cu    0.03465    0.02473   -0.25992
 39 Cu    0.00943   -0.03071   -0.20233
 40 Cu   -0.01860    0.01617   -0.06069
 41 Cu   -0.01403   -0.00994   -0.04240
 42 Cu    0.00314    0.02634    0.04245
 43 Cu    0.00353   -0.00801    0.07264
 44 Cu    0.08869    0.00331    0.07748
 45 Cu    0.00741   -0.03880    0.07970
 46 Cu    0.11674   -0.07721    0.13869
 47 Cu   -0.02324   -0.08380    0.18860
 48 Cu    0.01888   -0.00965   -0.37780
 49 Cu    0.00542   -0.00382   -0.21090
 50 Cu    0.00601    0.00418   -0.02213
 51 Cu   -0.01257   -0.01507    0.04699
 52 Cu    0.02061   -0.02355    0.11967
 53 Cu    0.12757   -0.06910    0.25539
 54 Cl    0.93595   -0.09830    0.88766
 55 Cl   -0.94428    0.08920   -0.89339
 56 Cl   -1.09829    0.06526   -1.11000
 57 Cl    1.29070   -0.03497    1.15813
 58 Cl   -0.77430   -1.24883    1.24002
 59 Cl    0.84796    1.47763   -1.35432
 60 Cl   -0.08981   -0.79843   -0.95208
 61 Cl   -0.14684    0.64520    1.01112

System changes: positions 

Initializing position-dependent things.

Density initialized from wave functions
                                              
                                              
                                              
                                              
                     Cl                       
                                 Cl           
                                              
             Cl         Cl    Cu     Cu       
                   Cu     Cu    Cu            
               Cu    Cu     Cu                
                    Cu     Cu    Cu           
               Cu     Cu     Cu               
           Cu    Cu     Cu                    
                Cu     Cu    Cu               
            Cu    Cu     Cu                   
              Cu        Cu    Cu     Cu       
       Cu          CCu    Cu    Cu            
               Cu    Cu     Cu                
                    Cu     Cu    Cu           
               Cu     Cu     Cu               
           Cu    Cu     Cu                    
                Cu     Cu    Cu               
            Cu    Cu     Cu                   
       Cu     Cu    Cl         Cl             
                    Cu                        
           Cl                                 
                       Cl                     
                                              
                                              
                                              
                                              

Positions:
   0 Cu     2.880501   -0.006221    9.998582    ( 0.0000,  0.0000,  0.0000)
   1 Cu     4.153984    2.254658    9.962547    ( 0.0000,  0.0000,  0.0000)
   2 Cu     0.320571   -0.011760    9.927006    ( 0.0000,  0.0000,  0.0000)
   3 Cu     1.577503    2.229175    9.899939    ( 0.0000,  0.0000,  0.0000)
   4 Cu     2.887545    3.003223   12.111728    ( 0.0000,  0.0000,  0.0000)
   5 Cu     1.582398    0.748736   12.152948    ( 0.0000,  0.0000,  0.0000)
   6 Cu     5.512162    3.015235   12.121053    ( 0.0000,  0.0000,  0.0000)
   7 Cu     4.207860    0.761423   12.101180    ( 0.0000,  0.0000,  0.0000)
   8 Cu     5.510174    1.511820   14.275257    ( 0.0000,  0.0000,  0.0000)
   9 Cu     6.820753    3.775981   14.275299    ( 0.0000,  0.0000,  0.0000)
  10 Cu     2.895903    1.504198   14.279844    ( 0.0000,  0.0000,  0.0000)
  11 Cu     4.204849    3.778992   14.259421    ( 0.0000,  0.0000,  0.0000)
  12 Cu     2.894883   -0.005483   16.429226    ( 0.0000,  0.0000,  0.0000)
  13 Cu     4.199844    2.266414   16.408775    ( 0.0000,  0.0000,  0.0000)
  14 Cu     0.275993    0.001711   16.400104    ( 0.0000,  0.0000,  0.0000)
  15 Cu     1.583790    2.264145   16.410720    ( 0.0000,  0.0000,  0.0000)
  16 Cu     2.892357    3.022322   18.572916    ( 0.0000,  0.0000,  0.0000)
  17 Cu     1.577039    0.746588   18.546121    ( 0.0000,  0.0000,  0.0000)
  18 Cu     5.507055    3.024378   18.562434    ( 0.0000,  0.0000,  0.0000)
  19 Cu     4.209810    0.762531   18.578163    ( 0.0000,  0.0000,  0.0000)
  20 Cu     5.513783    1.508554   20.766529    ( 0.0000,  0.0000,  0.0000)
  21 Cu     6.863100    3.780846   20.721474    ( 0.0000,  0.0000,  0.0000)
  22 Cu     2.877679    1.494364   20.746317    ( 0.0000,  0.0000,  0.0000)
  23 Cu     4.210874    3.778107   20.713092    ( 0.0000,  0.0000,  0.0000)
  24 Cu     5.501035    4.525459    9.911580    ( 0.0000,  0.0000,  0.0000)
  25 Cu     2.913184    4.507351    9.983818    ( 0.0000,  0.0000,  0.0000)
  26 Cu     4.208140    5.302631   12.102230    ( 0.0000,  0.0000,  0.0000)
  27 Cu     6.807525    5.274948   12.104209    ( 0.0000,  0.0000,  0.0000)
  28 Cu     8.125325    6.047019   14.254402    ( 0.0000,  0.0000,  0.0000)
  29 Cu     5.518273    6.045810   14.281458    ( 0.0000,  0.0000,  0.0000)
  30 Cu     5.510384    4.530416   16.408163    ( 0.0000,  0.0000,  0.0000)
  31 Cu     2.890364    4.528263   16.403870    ( 0.0000,  0.0000,  0.0000)
  32 Cu     4.201636    5.299148   18.552743    ( 0.0000,  0.0000,  0.0000)
  33 Cu     6.810365    5.277959   18.584503    ( 0.0000,  0.0000,  0.0000)
  34 Cu     8.136724    6.040564   20.679842    ( 0.0000,  0.0000,  0.0000)
  35 Cu     5.514254    6.052337   20.767655    ( 0.0000,  0.0000,  0.0000)
  36 Cu     5.505395   -0.014347    9.905272    ( 0.0000,  0.0000,  0.0000)
  37 Cu     6.803594    2.255482    9.964665    ( 0.0000,  0.0000,  0.0000)
  38 Cu     8.125756    3.019083   12.110610    ( 0.0000,  0.0000,  0.0000)
  39 Cu     6.816593    0.740143   12.131134    ( 0.0000,  0.0000,  0.0000)
  40 Cu     8.131274    1.513937   14.279151    ( 0.0000,  0.0000,  0.0000)
  41 Cu     9.436496    3.778064   14.275410    ( 0.0000,  0.0000,  0.0000)
  42 Cu     5.502469   -0.003269   16.400720    ( 0.0000,  0.0000,  0.0000)
  43 Cu     6.816509    2.263214   16.423471    ( 0.0000,  0.0000,  0.0000)
  44 Cu     8.132172    3.035943   18.573851    ( 0.0000,  0.0000,  0.0000)
  45 Cu     6.812118    0.736075   18.579040    ( 0.0000,  0.0000,  0.0000)
  46 Cu     8.106335    1.526507   20.698022    ( 0.0000,  0.0000,  0.0000)
  47 Cu     9.440439    3.806891   20.787868    ( 0.0000,  0.0000,  0.0000)
  48 Cu     8.140105    4.544411    9.919686    ( 0.0000,  0.0000,  0.0000)
  49 Cu     9.441873    5.291951   12.137874    ( 0.0000,  0.0000,  0.0000)
  50 Cu    10.744679    6.040397   14.283357    ( 0.0000,  0.0000,  0.0000)
  51 Cu     8.123999    4.537583   16.405283    ( 0.0000,  0.0000,  0.0000)
  52 Cu     9.438000    5.289603   18.529918    ( 0.0000,  0.0000,  0.0000)
  53 Cu    10.695536    6.047072   20.755017    ( 0.0000,  0.0000,  0.0000)
  54 Cl     6.396851    2.173916   22.461632    ( 0.0000,  0.0000,  0.0000)
  55 Cl     4.585249    3.859260    8.226845    ( 0.0000,  0.0000,  0.0000)
  56 Cl     9.607902    4.854724   22.718357    ( 0.0000,  0.0000,  0.0000)
  57 Cl     1.380884    1.174545    7.957886    ( 0.0000,  0.0000,  0.0000)
  58 Cl     8.582475    5.327007    7.885559    ( 0.0000,  0.0000,  0.0000)
  59 Cl     2.329485    0.704757   22.865819    ( 0.0000,  0.0000,  0.0000)
  60 Cl     4.816781    5.053802   23.086381    ( 0.0000,  0.0000,  0.0000)
  61 Cl     6.268440    0.988831    7.612064    ( 0.0000,  0.0000,  0.0000)

Unit cell:
           periodic     x           y           z      points  spacing
  1. axis:    yes    7.851007    0.000000    0.000000    45     0.1511
  2. axis:    yes    3.925503    6.799171    0.000000    45     0.1511
  3. axis:    yes    0.000000    0.000000   30.683867   175     0.1753

  Lengths:   7.851007   7.851006  30.683867
  Angles:   90.000000  90.000000  60.000001

Effective grid spacing dv^(1/3) = 0.1666

     iter     time        total  log10-change:
                         energy  eigst   dens
iter:   1 11:28:10 -4411.398146  -1.28
iter:   2 11:29:11 -4395.485729  -0.95  -1.35
iter:   3 11:29:58 -4383.181057  -1.89  -1.74
iter:   4 11:30:55 -4382.705360  -2.98  -2.17
iter:   5 11:31:51 -4382.371110  -3.55  -2.25
iter:   6 11:32:38 -4381.791708  -2.49  -2.32
iter:   7 11:34:06 -4381.739660  -3.80  -2.64
iter:   8 11:35:32 -4381.700156c -3.77  -2.74
iter:   9 11:36:40 -4381.705862c -4.10  -2.90
iter:  10 11:37:32 -4381.695830c -4.14  -2.98
iter:  11 11:38:39 -4381.699045c -4.28  -3.04
iter:  12 11:39:52 -4381.691181c -5.23  -3.24
iter:  13 11:41:09 -4381.687352c -5.28  -3.46
iter:  14 11:42:12 -4381.684740c -4.73  -3.54
iter:  15 11:43:10 -4381.685741c -5.11  -3.69
iter:  16 11:44:05 -4381.684840c -5.87  -3.83
iter:  17 11:45:03 -4381.684385c -5.80  -3.94
iter:  18 11:46:20 -4381.684320c -6.35  -4.09c
iter:  19 11:47:14 -4381.684443c -6.46  -4.16c
iter:  20 11:48:01 -4381.684450c -7.04  -4.25c
iter:  21 11:49:50 -4381.684518c -7.21  -4.35c
iter:  22 11:50:52 -4381.684424c -6.49  -4.46c
iter:  23 11:52:03 -4381.684461c -7.42c -4.80c

Converged after 23 iterations.

Dipole moment: (-19.158701, -6.139311, -0.043143) |e|*Ang

Energy contributions relative to reference atoms: (reference = -2531597.994586)

Kinetic:       +453.531031
Potential:     -490.769414
External:        +0.000000
XC:            -4343.432213
Entropy (-ST):   -0.534559
Local:           -0.746585
--------------------------
Free energy:   -4381.951741
Extrapolated:  -4381.684461

Showing only first 2 kpts
 Kpt  Band  Eigenvalues  Occupancy
  0   323      0.04563    0.92388
  0   324      0.08912    0.71445
  0   325      0.15511    0.44630
  0   326      0.18558    0.34958

  1   323     -0.40124    1.97365
  1   324     -0.35109    1.95686
  1   325     -0.20504    1.82652
  1   326     -0.08362    1.51535


Fermi level: 0.03037

No gap

Forces in eV/Ang:
  0 Cu    0.08184    0.03436   -0.10408
  1 Cu    0.17557   -0.35840    0.07548
  2 Cu   -0.31815    0.08638   -0.07819
  3 Cu    0.05028    0.44924    0.55043
  4 Cu   -0.09606    0.02481   -0.06185
  5 Cu   -0.02296    0.02859   -0.17093
  6 Cu    0.02930    0.02019   -0.07214
  7 Cu    0.02850   -0.01418   -0.14201
  8 Cu    0.00998   -0.00606   -0.04921
  9 Cu    0.01623    0.00514   -0.03108
 10 Cu    0.01655    0.02505   -0.06503
 11 Cu   -0.00774    0.00722   -0.07331
 12 Cu    0.00717    0.00766    0.04101
 13 Cu   -0.01749   -0.00889    0.03387
 14 Cu   -0.01725   -0.01334    0.05888
 15 Cu    0.01152    0.01516    0.07010
 16 Cu   -0.04074   -0.03527    0.27290
 17 Cu   -0.02103    0.03582    0.25498
 18 Cu   -0.02106   -0.02439    0.05879
 19 Cu    0.01278    0.06748    0.17747
 20 Cu   -1.49217   -0.98446   -2.43547
 21 Cu   -0.18871    0.33007   -0.03754
 22 Cu    0.00549    0.09493    0.18563
 23 Cu    0.06022    0.25675    0.32767
 24 Cu    1.50310    0.95966    2.37167
 25 Cu   -0.31740    0.20212    0.05200
 26 Cu   -0.00906    0.00574   -0.05061
 27 Cu   -0.00109   -0.06563   -0.18392
 28 Cu   -0.00785   -0.00840   -0.04391
 29 Cu   -0.00952   -0.04042   -0.06091
 30 Cu   -0.01035    0.00577    0.05166
 31 Cu    0.02361   -0.01856    0.08171
 32 Cu   -0.01307    0.00646    0.24498
 33 Cu   -0.02597    0.00591    0.11974
 34 Cu   -0.09336   -0.01186    0.11472
 35 Cu   -0.20214   -0.20404    0.58714
 36 Cu    0.21842    0.22501   -0.50911
 37 Cu   -0.04549   -0.24820   -0.30714
 38 Cu    0.03849    0.03726   -0.29768
 39 Cu    0.01399   -0.00662   -0.25364
 40 Cu   -0.02726    0.01787   -0.08333
 41 Cu   -0.01146   -0.01944   -0.07271
 42 Cu    0.00642    0.03569    0.06839
 43 Cu    0.00539   -0.00940    0.07469
 44 Cu    0.08769   -0.02277    0.06347
 45 Cu    0.00084    0.00026    0.05365
 46 Cu    0.30854   -0.19433    0.01768
 47 Cu   -0.04311   -0.52131   -0.63475
 48 Cu   -0.11501   -0.29192    0.31610
 49 Cu    0.01745   -0.03731   -0.27563
 50 Cu    0.01841    0.01170   -0.06149
 51 Cu   -0.01608   -0.02313    0.06746
 52 Cu    0.02029   -0.02793    0.16028
 53 Cu    0.32495   -0.08441    0.07771
 54 Cl    1.46693    0.60374    2.43779
 55 Cl   -1.44777   -0.59185   -2.40797
 56 Cl   -0.70695    0.44965   -0.10133
 57 Cl    0.94117   -0.36681    0.24061
 58 Cl   -0.45409   -0.69029    0.41813
 59 Cl    0.66207    1.14044   -1.03808
 60 Cl   -0.15356   -0.89738   -1.23052
 61 Cl   -0.21102    0.63181    1.22895

System changes: positions 

Initializing position-dependent things.

Density initialized from wave functions
                                              
                                              
                                              
                                              
                     Cl                       
                                 Cl           
                        Cu           Cu       
             Cl         Cl    Cu              
                   Cu     Cu    Cu            
               Cu    Cu     Cu                
                    Cu     Cu    Cu           
               Cu     Cu     Cu               
           Cu    Cu     Cu                    
                Cu     Cu    Cu               
            Cu    Cu     Cu                   
              Cu    Cu  Cu    Cu     Cu       
       Cu          Cu     Cu    Cu            
               Cu    Cu     Cu                
                    Cu     Cu    Cu           
               Cu     Cu     Cu               
           Cu    Cu     Cu                    
                Cu     Cu    Cu               
            Cu    Cu     Cu                   
              Cu    Cl         Cl             
       Cu           Cu                        
           Cl                                 
                       Cl                     
                                              
                                              
                                              
                                              

Positions:
   0 Cu     2.882492   -0.003536    9.985613    ( 0.0000,  0.0000,  0.0000)
   1 Cu     4.154673    2.254137    9.963832    ( 0.0000,  0.0000,  0.0000)
   2 Cu     0.322691   -0.013130    9.895582    ( 0.0000,  0.0000,  0.0000)
   3 Cu     1.583103    2.239873    9.882778    ( 0.0000,  0.0000,  0.0000)
   4 Cu     2.879278    3.001376   12.103983    ( 0.0000,  0.0000,  0.0000)
   5 Cu     1.580294    0.749121   12.145985    ( 0.0000,  0.0000,  0.0000)
   6 Cu     5.515992    3.014361   12.117615    ( 0.0000,  0.0000,  0.0000)
   7 Cu     4.209974    0.758096   12.091113    ( 0.0000,  0.0000,  0.0000)
   8 Cu     5.510629    1.511748   14.273928    ( 0.0000,  0.0000,  0.0000)
   9 Cu     6.822127    3.775321   14.274790    ( 0.0000,  0.0000,  0.0000)
  10 Cu     2.896565    1.504338   14.276710    ( 0.0000,  0.0000,  0.0000)
  11 Cu     4.204597    3.779225   14.252531    ( 0.0000,  0.0000,  0.0000)
  12 Cu     2.894238   -0.005017   16.428073    ( 0.0000,  0.0000,  0.0000)
  13 Cu     4.198429    2.266862   16.409348    ( 0.0000,  0.0000,  0.0000)
  14 Cu     0.276637    0.002121   16.398314    ( 0.0000,  0.0000,  0.0000)
  15 Cu     1.585146    2.263753   16.411323    ( 0.0000,  0.0000,  0.0000)
  16 Cu     2.889203    3.021785   18.592746    ( 0.0000,  0.0000,  0.0000)
  17 Cu     1.576945    0.744470   18.558092    ( 0.0000,  0.0000,  0.0000)
  18 Cu     5.503564    3.025335   18.565761    ( 0.0000,  0.0000,  0.0000)
  19 Cu     4.207917    0.763181   18.587781    ( 0.0000,  0.0000,  0.0000)
  20 Cu     5.468175    1.482439   20.690533    ( 0.0000,  0.0000,  0.0000)
  21 Cu     6.862176    3.780850   20.721015    ( 0.0000,  0.0000,  0.0000)
  22 Cu     2.879167    1.492978   20.777908    ( 0.0000,  0.0000,  0.0000)
  23 Cu     4.221365    3.783176   20.742243    ( 0.0000,  0.0000,  0.0000)
  24 Cu     5.546843    4.551216    9.985974    ( 0.0000,  0.0000,  0.0000)
  25 Cu     2.913604    4.507633    9.973777    ( 0.0000,  0.0000,  0.0000)
  26 Cu     4.206505    5.309776   12.094022    ( 0.0000,  0.0000,  0.0000)
  27 Cu     6.809591    5.274247   12.094637    ( 0.0000,  0.0000,  0.0000)
  28 Cu     8.125945    6.046553   14.255495    ( 0.0000,  0.0000,  0.0000)
  29 Cu     5.518352    6.044125   14.280112    ( 0.0000,  0.0000,  0.0000)
  30 Cu     5.509820    4.530254   16.409474    ( 0.0000,  0.0000,  0.0000)
  31 Cu     2.891669    4.526369   16.406113    ( 0.0000,  0.0000,  0.0000)
  32 Cu     4.200337    5.303430   18.566364    ( 0.0000,  0.0000,  0.0000)
  33 Cu     6.808346    5.281358   18.593779    ( 0.0000,  0.0000,  0.0000)
  34 Cu     8.134766    6.038824   20.691800    ( 0.0000,  0.0000,  0.0000)
  35 Cu     5.510358    6.041394   20.820119    ( 0.0000,  0.0000,  0.0000)
  36 Cu     5.510585   -0.001880    9.852159    ( 0.0000,  0.0000,  0.0000)
  37 Cu     6.792842    2.250078    9.934237    ( 0.0000,  0.0000,  0.0000)
  38 Cu     8.128288    3.019879   12.089508    ( 0.0000,  0.0000,  0.0000)
  39 Cu     6.817411    0.735781   12.117115    ( 0.0000,  0.0000,  0.0000)
  40 Cu     8.129948    1.515468   14.276385    ( 0.0000,  0.0000,  0.0000)
  41 Cu     9.434949    3.778134   14.274565    ( 0.0000,  0.0000,  0.0000)
  42 Cu     5.502273   -0.001629   16.402524    ( 0.0000,  0.0000,  0.0000)
  43 Cu     6.816645    2.262621   16.430234    ( 0.0000,  0.0000,  0.0000)
  44 Cu     8.140340    3.037586   18.581450    ( 0.0000,  0.0000,  0.0000)
  45 Cu     6.813717    0.728958   18.587681    ( 0.0000,  0.0000,  0.0000)
  46 Cu     8.106381    1.526200   20.710206    ( 0.0000,  0.0000,  0.0000)
  47 Cu     9.435459    3.793713   20.802318    ( 0.0000,  0.0000,  0.0000)
  48 Cu     8.135106    4.539579    9.902045    ( 0.0000,  0.0000,  0.0000)
  49 Cu     9.441907    5.293860   12.125230    ( 0.0000,  0.0000,  0.0000)
  50 Cu    10.743842    6.039899   14.285468    ( 0.0000,  0.0000,  0.0000)
  51 Cu     8.123038    4.537145   16.408124    ( 0.0000,  0.0000,  0.0000)
  52 Cu     9.440147    5.288630   18.536174    ( 0.0000,  0.0000,  0.0000)
  53 Cu    10.693311    6.048450   20.786371    ( 0.0000,  0.0000,  0.0000)
  54 Cl     6.515332    2.066953   22.495602    ( 0.0000,  0.0000,  0.0000)
  55 Cl     4.462698    3.967184    8.195628    ( 0.0000,  0.0000,  0.0000)
  56 Cl     9.452922    4.857001   22.626075    ( 0.0000,  0.0000,  0.0000)
  57 Cl     1.536906    1.173599    8.053056    ( 0.0000,  0.0000,  0.0000)
  58 Cl     8.493851    5.192822    7.969489    ( 0.0000,  0.0000,  0.0000)
  59 Cl     2.419496    0.854076   22.767830    ( 0.0000,  0.0000,  0.0000)
  60 Cl     4.805079    5.053922   23.049494    ( 0.0000,  0.0000,  0.0000)
  61 Cl     6.284842    0.980989    7.652219    ( 0.0000,  0.0000,  0.0000)

Unit cell:
           periodic     x           y           z      points  spacing
  1. axis:    yes    7.851007    0.000000    0.000000    45     0.1511
  2. axis:    yes    3.925503    6.799171    0.000000    45     0.1511
  3. axis:    yes    0.000000    0.000000   30.683867   175     0.1753

  Lengths:   7.851007   7.851006  30.683867
  Angles:   90.000000  90.000000  60.000001

Effective grid spacing dv^(1/3) = 0.1666

     iter     time        total  log10-change:
                         energy  eigst   dens
iter:   1 11:54:31 -4401.768005  -1.30
iter:   2 11:56:23 -4390.728685  -1.17  -1.46
iter:   3 11:58:01 -4383.493384  -2.20  -1.87
iter:   4 11:58:56 -4383.345627  -3.28  -2.36
iter:   5 12:00:18 -4383.536300c -3.12  -2.39
iter:   6 12:01:11 -4382.950946  -2.72  -2.32
iter:   7 12:02:00 -4382.890247  -3.71  -2.75
iter:   8 12:02:55 -4382.877139c -3.80  -2.87
iter:   9 12:03:52 -4382.869810c -4.50  -3.03
iter:  10 12:04:39 -4382.868839c -4.21  -3.15
iter:  11 12:05:35 -4382.867281c -5.31  -3.45
iter:  12 12:06:31 -4382.866713c -4.84  -3.50
iter:  13 12:07:17 -4382.866073c -4.95  -3.47
iter:  14 12:08:18 -4382.866076c -5.80  -3.68
iter:  15 12:09:18 -4382.864952c -5.76  -3.80
iter:  16 12:10:13 -4382.864319c -5.32  -3.92
iter:  17 12:11:12 -4382.864319c -6.78  -4.21c
iter:  18 12:12:09 -4382.864402c -6.40  -4.27c
iter:  19 12:13:07 -4382.864391c -7.28  -4.34c
iter:  20 12:14:01 -4382.864352c -6.38  -4.33c
iter:  21 12:15:02 -4382.864354c -7.67c -4.67c

Converged after 21 iterations.

Dipole moment: (-17.194533, -5.184543, -0.051257) |e|*Ang

Energy contributions relative to reference atoms: (reference = -2531597.994586)

Kinetic:       +458.026366
Potential:     -495.003947
External:        +0.000000
XC:            -4344.890226
Entropy (-ST):   -0.513313
Local:           -0.739890
--------------------------
Free energy:   -4383.121010
Extrapolated:  -4382.864354

Showing only first 2 kpts
 Kpt  Band  Eigenvalues  Occupancy
  0   323      0.14824    0.93692
  0   324      0.19069    0.73132
  0   325      0.26021    0.44678
  0   326      0.30318    0.31532

  1   323     -0.36432    1.98660
  1   324     -0.30668    1.97628
  1   325     -0.12166    1.85816
  1   326      0.01604    1.53551


Fermi level: 0.13560

No gap

Forces in eV/Ang:
  0 Cu    0.13457    0.06769   -0.01291
  1 Cu    0.27258   -0.16048    0.01321
  2 Cu   -0.36627    0.04207    0.07051
  3 Cu   -0.01042    0.89072    1.42693
  4 Cu   -0.05228    0.05162   -0.03731
  5 Cu   -0.02044    0.01900   -0.16809
  6 Cu    0.01093   -0.01821   -0.06356
  7 Cu    0.03286   -0.01936   -0.13020
  8 Cu    0.01505   -0.00847   -0.06518
  9 Cu    0.01620    0.00298   -0.04158
 10 Cu    0.01529    0.02371   -0.07847
 11 Cu   -0.00981    0.00562   -0.05899
 12 Cu    0.00597    0.00939    0.06589
 13 Cu   -0.01736   -0.00707    0.04250
 14 Cu   -0.01668   -0.01657    0.08815
 15 Cu    0.01026    0.01229    0.08523
 16 Cu   -0.00712   -0.03729    0.25115
 17 Cu   -0.02148    0.03555    0.26250
 18 Cu   -0.00560    0.01441    0.04875
 19 Cu   -0.06629    0.01982    0.04427
 20 Cu   -0.52521   -0.16153   -0.79612
 21 Cu   -0.28382    0.14243    0.02471
 22 Cu    0.21905    0.43007   -0.94842
 23 Cu    0.05998    0.21058    0.24489
 24 Cu    0.53236    0.16100    0.80409
 25 Cu   -0.23257    0.22887    0.12103
 26 Cu   -0.04828   -0.01285    0.00472
 27 Cu    0.06339   -0.01089   -0.04101
 28 Cu   -0.00548   -0.00982   -0.07043
 29 Cu   -0.00945   -0.03527   -0.07285
 30 Cu   -0.01591    0.00774    0.06468
 31 Cu    0.02470   -0.01551    0.09917
 32 Cu   -0.00409   -0.01748    0.24318
 33 Cu   -0.03225    0.00940    0.10937
 34 Cu   -0.13781   -0.05953    0.02969
 35 Cu   -0.20198   -0.19290    0.38444
 36 Cu    0.19663    0.17907   -0.30279
 37 Cu   -0.04395   -0.19632   -0.20630
 38 Cu    0.01192    0.02248   -0.25544
 39 Cu    0.00942    0.01732   -0.24803
 40 Cu   -0.02927    0.01548   -0.10144
 41 Cu   -0.00965   -0.01557   -0.08946
 42 Cu    0.00624    0.03021    0.07809
 43 Cu    0.00680   -0.00758    0.05863
 44 Cu    0.03998   -0.05192    0.03911
 45 Cu    0.04397    0.01935   -0.00268
 46 Cu    0.19475   -0.21503   -0.03965
 47 Cu    0.03714   -0.93450   -1.48076
 48 Cu   -0.30145   -0.70264    1.75106
 49 Cu    0.02388   -0.03304   -0.27163
 50 Cu    0.01709    0.01484   -0.09386
 51 Cu   -0.01298   -0.02113    0.07831
 52 Cu    0.01648   -0.01502    0.16017
 53 Cu    0.37143   -0.05128   -0.05937
 54 Cl    0.66857    0.14910    0.83467
 55 Cl   -0.62817   -0.17106   -0.89210
 56 Cl   -0.49214    0.92945    0.99901
 57 Cl    0.63896   -0.85750   -0.91273
 58 Cl   -0.02690    0.09222   -1.30375
 59 Cl    0.19574    0.36074    0.36999
 60 Cl   -0.10980   -0.59974   -1.26839
 61 Cl   -0.15004    0.44176    1.21302

System changes: positions 

Initializing position-dependent things.

Density initialized from wave functions
                                              
                                              
                                              
                                              
                     Cl                       
                                 Cl           
                        Cu    Cu     Cu       
             Cl         Cl                    
                   Cu     Cu    Cu            
               Cu    Cu     Cu                
                    Cu     Cu    Cu           
               Cu     Cu     Cu               
           Cu    Cu     Cu                    
                Cu     Cu    Cu               
            Cu    Cu     Cu                   
       Cu     Cu    Cu  Cu    Cu     Cu       
                   Cu     Cu    Cu            
               Cu    Cu     Cu                
                    Cu     Cu    Cu           
               Cu     Cu     Cu               
           Cu    Cu     Cu                    
                Cu     Cu    Cu               
            Cu    Cu     Cu                   
                    Cl        Cl              
       Cu     Cu    Cu                        
           Cl                                 
                       Cl                     
                                              
                                              
                                              
                                              

Positions:
   0 Cu     2.895971    0.004950    9.975153    ( 0.0000,  0.0000,  0.0000)
   1 Cu     4.178682    2.246408    9.964425    ( 0.0000,  0.0000,  0.0000)
   2 Cu     0.295299   -0.012281    9.876200    ( 0.0000,  0.0000,  0.0000)
   3 Cu     1.585849    2.329190    9.998984    ( 0.0000,  0.0000,  0.0000)
   4 Cu     2.868865    3.004340   12.094702    ( 0.0000,  0.0000,  0.0000)
   5 Cu     1.576877    0.750685   12.126831    ( 0.0000,  0.0000,  0.0000)
   6 Cu     5.519845    3.011190   12.109832    ( 0.0000,  0.0000,  0.0000)
   7 Cu     4.214529    0.753452   12.072273    ( 0.0000,  0.0000,  0.0000)
   8 Cu     5.512328    1.510971   14.267311    ( 0.0000,  0.0000,  0.0000)
   9 Cu     6.824619    3.774894   14.270871    ( 0.0000,  0.0000,  0.0000)
  10 Cu     2.898308    1.506250   14.267498    ( 0.0000,  0.0000,  0.0000)
  11 Cu     4.203562    3.779827   14.242104    ( 0.0000,  0.0000,  0.0000)
  12 Cu     2.894079   -0.003829   16.432712    ( 0.0000,  0.0000,  0.0000)
  13 Cu     4.195814    2.266774   16.413349    ( 0.0000,  0.0000,  0.0000)
  14 Cu     0.275957    0.001141   16.404193    ( 0.0000,  0.0000,  0.0000)
  15 Cu     1.587135    2.264266   16.418795    ( 0.0000,  0.0000,  0.0000)
  16 Cu     2.886646    3.018386   18.629493    ( 0.0000,  0.0000,  0.0000)
  17 Cu     1.575200    0.745262   18.589306    ( 0.0000,  0.0000,  0.0000)
  18 Cu     5.500353    3.028302   18.572271    ( 0.0000,  0.0000,  0.0000)
  19 Cu     4.199092    0.764076   18.596525    ( 0.0000,  0.0000,  0.0000)
  20 Cu     5.411089    1.467303   20.602190    ( 0.0000,  0.0000,  0.0000)
  21 Cu     6.837138    3.786988   20.724082    ( 0.0000,  0.0000,  0.0000)
  22 Cu     2.902772    1.533258   20.704954    ( 0.0000,  0.0000,  0.0000)
  23 Cu     4.235502    3.802760   20.785430    ( 0.0000,  0.0000,  0.0000)
  24 Cu     5.604563    4.566607   10.075304    ( 0.0000,  0.0000,  0.0000)
  25 Cu     2.898315    4.526126    9.975688    ( 0.0000,  0.0000,  0.0000)
  26 Cu     4.200312    5.314815   12.088330    ( 0.0000,  0.0000,  0.0000)
  27 Cu     6.817978    5.274171   12.086433    ( 0.0000,  0.0000,  0.0000)
  28 Cu     8.126149    6.045339   14.250412    ( 0.0000,  0.0000,  0.0000)
  29 Cu     5.517700    6.040019   14.272997    ( 0.0000,  0.0000,  0.0000)
  30 Cu     5.507944    4.530751   16.415959    ( 0.0000,  0.0000,  0.0000)
  31 Cu     2.894780    4.523534   16.416204    ( 0.0000,  0.0000,  0.0000)
  32 Cu     4.199070    5.305374   18.597360    ( 0.0000,  0.0000,  0.0000)
  33 Cu     6.803876    5.285260   18.610340    ( 0.0000,  0.0000,  0.0000)
  34 Cu     8.121280    6.031459   20.702784    ( 0.0000,  0.0000,  0.0000)
  35 Cu     5.491327    6.016928   20.892154    ( 0.0000,  0.0000,  0.0000)
  36 Cu     5.529831    0.022022    9.785888    ( 0.0000,  0.0000,  0.0000)
  37 Cu     6.779730    2.231430    9.893308    ( 0.0000,  0.0000,  0.0000)
  38 Cu     8.130827    3.021949   12.051799    ( 0.0000,  0.0000,  0.0000)
  39 Cu     6.818760    0.733754   12.085483    ( 0.0000,  0.0000,  0.0000)
  40 Cu     8.126446    1.517988   14.265628    ( 0.0000,  0.0000,  0.0000)
  41 Cu     9.432847    3.777102   14.266507    ( 0.0000,  0.0000,  0.0000)
  42 Cu     5.502568    0.002041   16.410403    ( 0.0000,  0.0000,  0.0000)
  43 Cu     6.817327    2.261547   16.440473    ( 0.0000,  0.0000,  0.0000)
  44 Cu     8.149617    3.034354   18.590740    ( 0.0000,  0.0000,  0.0000)
  45 Cu     6.819645    0.724457   18.593898    ( 0.0000,  0.0000,  0.0000)
  46 Cu     8.118454    1.508901   20.716784    ( 0.0000,  0.0000,  0.0000)
  47 Cu     9.435825    3.699503   20.680296    ( 0.0000,  0.0000,  0.0000)
  48 Cu     8.102680    4.470808   10.056931    ( 0.0000,  0.0000,  0.0000)
  49 Cu     9.443934    5.293172   12.092998    ( 0.0000,  0.0000,  0.0000)
  50 Cu    10.744357    6.040664   14.279364    ( 0.0000,  0.0000,  0.0000)
  51 Cu     8.121247    4.535178   16.416992    ( 0.0000,  0.0000,  0.0000)
  52 Cu     9.443266    5.286923   18.554146    ( 0.0000,  0.0000,  0.0000)
  53 Cu    10.720960    6.046617   20.806841    ( 0.0000,  0.0000,  0.0000)
  54 Cl     6.654006    1.969483   22.549596    ( 0.0000,  0.0000,  0.0000)
  55 Cl     4.323963    4.062980    8.137505    ( 0.0000,  0.0000,  0.0000)
  56 Cl     9.279681    4.942607   22.646840    ( 0.0000,  0.0000,  0.0000)
  57 Cl     1.720124    1.094445    8.040183    ( 0.0000,  0.0000,  0.0000)
  58 Cl     8.422076    5.097808    7.901887    ( 0.0000,  0.0000,  0.0000)
  59 Cl     2.504484    0.997670   22.743015    ( 0.0000,  0.0000,  0.0000)
  60 Cl     4.787129    5.015631   22.917691    ( 0.0000,  0.0000,  0.0000)
  61 Cl     6.289811    1.002886    7.781374    ( 0.0000,  0.0000,  0.0000)

Unit cell:
           periodic     x           y           z      points  spacing
  1. axis:    yes    7.851007    0.000000    0.000000    45     0.1511
  2. axis:    yes    3.925503    6.799171    0.000000    45     0.1511
  3. axis:    yes    0.000000    0.000000   30.683867   175     0.1753

  Lengths:   7.851007   7.851006  30.683867
  Angles:   90.000000  90.000000  60.000001

Effective grid spacing dv^(1/3) = 0.1666

     iter     time        total  log10-change:
                         energy  eigst   dens
iter:   1 12:16:28 -4390.915140  -1.06
iter:   2 12:17:29 -4393.602144  -1.66  -1.75
iter:   3 12:18:30 -4392.180896  -1.76  -1.79
iter:   4 12:19:35 -4385.203643  -2.32  -1.81
iter:   5 12:20:29 -4384.522927  -2.82  -2.19
iter:   6 12:21:20 -4384.317032  -2.63  -2.32
iter:   7 12:22:12 -4384.183310  -3.50  -2.52
iter:   8 12:23:06 -4384.161336c -3.26  -2.65
iter:   9 12:24:18 -4384.145089c -3.63  -2.81
iter:  10 12:25:27 -4384.118813c -4.17  -3.06
iter:  11 12:26:17 -4384.114077c -4.55  -3.19
iter:  12 12:27:10 -4384.115919c -4.96  -3.27
iter:  13 12:28:05 -4384.112526c -5.26  -3.28
iter:  14 12:28:53 -4384.112491c -5.56  -3.48
iter:  15 12:29:48 -4384.111137c -5.43  -3.63
iter:  16 12:32:01 -4384.111262c -5.56  -3.84
iter:  17 12:33:34 -4384.111179c -6.16  -3.93
iter:  18 12:34:26 -4384.110998c -5.90  -4.03c
iter:  19 12:35:42 -4384.111086c -6.41  -4.16c
iter:  20 12:36:47 -4384.110946c -6.63  -4.15c
iter:  21 12:37:49 -4384.110943c -7.21  -4.39c
iter:  22 12:39:16 -4384.110955c -7.05  -4.43c
iter:  23 12:40:41 -4384.110957c -7.97c -4.69c

Converged after 23 iterations.

Dipole moment: (-14.116575, -5.839693, 0.028075) |e|*Ang

Energy contributions relative to reference atoms: (reference = -2531597.994586)

Kinetic:       +448.223507
Potential:     -487.584117
External:        +0.000000
XC:            -4343.758351
Entropy (-ST):   -0.518648
Local:           -0.732671
--------------------------
Free energy:   -4384.370281
Extrapolated:  -4384.110957

Showing only first 2 kpts
 Kpt  Band  Eigenvalues  Occupancy
  0   323      0.12647    0.96472
  0   324      0.18050    0.70374
  0   325      0.22808    0.50450
  0   326      0.30235    0.27663

  1   323     -0.37362    1.98565
  1   324     -0.32852    1.97757
  1   325     -0.14084    1.86204
  1   326     -0.02176    1.60807


Fermi level: 0.11941

No gap

Forces in eV/Ang:
  0 Cu    0.04695    0.10072   -0.18862
  1 Cu    0.12667    0.13715   -0.11397
  2 Cu    0.00378    0.12071   -0.02042
  3 Cu   -0.03438   -0.30653   -0.11032
  4 Cu    0.14306    0.08658    0.12915
  5 Cu   -0.00871   -0.05507   -0.09111
  6 Cu   -0.01119   -0.06744    0.00967
  7 Cu    0.02727   -0.02643   -0.07155
  8 Cu    0.01448   -0.01483   -0.06821
  9 Cu    0.01020   -0.00340   -0.03086
 10 Cu   -0.00192    0.00341   -0.06672
 11 Cu   -0.00814    0.00053   -0.01363
 12 Cu   -0.01295    0.00615    0.05412
 13 Cu   -0.01133    0.00044    0.02987
 14 Cu    0.00338   -0.01387    0.08121
 15 Cu    0.00684   -0.00289    0.06428
 16 Cu    0.17235    0.03267   -0.14980
 17 Cu   -0.04824   -0.04615    0.13462
 18 Cu    0.00540    0.06292   -0.01319
 19 Cu   -0.10479   -0.12804   -0.29500
 20 Cu    0.38533    0.20984    0.39666
 21 Cu   -0.11936   -0.12339    0.10842
 22 Cu    0.03237    0.03932   -0.64391
 23 Cu   -0.06284    0.01806    0.11821
 24 Cu   -0.40114   -0.20239   -0.41875
 25 Cu   -0.05936    0.19128   -0.03814
 26 Cu   -0.04546   -0.01764    0.07926
 27 Cu    0.03525    0.17888    0.38288
 28 Cu    0.01387   -0.00593   -0.05412
 29 Cu   -0.00239   -0.00312   -0.04929
 30 Cu   -0.01576    0.01223    0.06615
 31 Cu    0.00740   -0.00284    0.08463
 32 Cu    0.00480   -0.03285    0.16046
 33 Cu   -0.02823    0.01821    0.07006
 34 Cu   -0.00056   -0.17304    0.15320
 35 Cu    0.08526    0.17724    0.02093
 36 Cu   -0.16587   -0.29052   -0.03172
 37 Cu    0.06676   -0.01060   -0.11305
 38 Cu   -0.15043   -0.17407    0.31272
 39 Cu    0.00014    0.03017   -0.15307
 40 Cu   -0.01045    0.00314   -0.08513
 41 Cu   -0.00699    0.00257   -0.06382
 42 Cu    0.00144   -0.00015    0.05168
 43 Cu    0.00592   -0.00093    0.01232
 44 Cu   -0.15408   -0.09448   -0.12740
 45 Cu    0.04943    0.02214   -0.06798
 46 Cu   -0.00412   -0.18746    0.03201
 47 Cu    0.03166    0.34781    0.13650
 48 Cu    0.21366    0.34292   -0.50257
 49 Cu    0.08847    0.08222   -0.07243
 50 Cu   -0.00536    0.01161   -0.08504
 51 Cu    0.00372   -0.00411    0.06381
 52 Cu    0.00554    0.05686    0.09684
 53 Cu   -0.00484   -0.13212    0.00551
 54 Cl    0.08727    0.00674   -0.20791
 55 Cl   -0.04146   -0.03203    0.20198
 56 Cl   -0.30884    0.25843   -0.41038
 57 Cl    0.38218   -0.24707    0.38521
 58 Cl   -0.20720   -0.25057    0.48287
 59 Cl    0.05255    0.08358    0.48208
 60 Cl   -0.11069   -0.43804   -0.83890
 61 Cl    0.03157    0.44673    0.79490

System changes: positions 

Initializing position-dependent things.

Density initialized from wave functions
                                              
                                              
                                              
                                              
                     Cl         Cl            
                                              
                        Cl    Cu     Cu       
              Cl   Cu     Cu                  
                                Cu            
               Cu   CCu    CCu   Cu           
                Cu                            
                      Cu     Cu               
           Cu   CCu    CCu   Cu               
                                              
            Cu    Cu    CCu   Cu     Cu       
       Cu     Cu   CCu    Cu    Cu            
                                              
               Cu   CCu    CCu   Cu           
               Cu     Cu                      
                            Cu                
           Cu   CCu    CCu   Cu               
            Cu                                
                  Cu     Cu   Cl              
       Cu     Cu    Cu                        
                                              
            Cl         Cl                     
                                              
                                              
                                              
                                              

Positions:
   0 Cu     2.906457    0.019595    9.948051    ( 0.0000,  0.0000,  0.0000)
   1 Cu     4.200946    2.260011    9.952440    ( 0.0000,  0.0000,  0.0000)
   2 Cu     0.287182   -0.000086    9.858085    ( 0.0000,  0.0000,  0.0000)
   3 Cu     1.584518    2.333163   10.026500    ( 0.0000,  0.0000,  0.0000)
   4 Cu     2.878156    3.014059   12.102896    ( 0.0000,  0.0000,  0.0000)
   5 Cu     1.574136    0.745403   12.108582    ( 0.0000,  0.0000,  0.0000)
   6 Cu     5.521082    3.002376   12.107217    ( 0.0000,  0.0000,  0.0000)
   7 Cu     4.219667    0.747941   12.055189    ( 0.0000,  0.0000,  0.0000)
   8 Cu     5.514615    1.509103   14.257342    ( 0.0000,  0.0000,  0.0000)
   9 Cu     6.826985    3.774145   14.266065    ( 0.0000,  0.0000,  0.0000)
  10 Cu     2.898887    1.507265   14.256240    ( 0.0000,  0.0000,  0.0000)
  11 Cu     4.202260    3.780145   14.235008    ( 0.0000,  0.0000,  0.0000)
  12 Cu     2.892419   -0.002616   16.439759    ( 0.0000,  0.0000,  0.0000)
  13 Cu     4.193276    2.266965   16.418082    ( 0.0000,  0.0000,  0.0000)
  14 Cu     0.276326   -0.000530   16.414326    ( 0.0000,  0.0000,  0.0000)
  15 Cu     1.588966    2.263963   16.428361    ( 0.0000,  0.0000,  0.0000)
  16 Cu     2.903276    3.020545   18.632230    ( 0.0000,  0.0000,  0.0000)
  17 Cu     1.569489    0.739883   18.617901    ( 0.0000,  0.0000,  0.0000)
  18 Cu     5.498802    3.036603   18.574051    ( 0.0000,  0.0000,  0.0000)
  19 Cu     4.183780    0.750605   18.570281    ( 0.0000,  0.0000,  0.0000)
  20 Cu     5.426053    1.482764   20.603554    ( 0.0000,  0.0000,  0.0000)
  21 Cu     6.815250    3.774239   20.736950    ( 0.0000,  0.0000,  0.0000)
  22 Cu     2.916223    1.552888   20.614254    ( 0.0000,  0.0000,  0.0000)
  23 Cu     4.237077    3.812360   20.821374    ( 0.0000,  0.0000,  0.0000)
  24 Cu     5.588166    4.552107   10.071990    ( 0.0000,  0.0000,  0.0000)
  25 Cu     2.887988    4.552695    9.969353    ( 0.0000,  0.0000,  0.0000)
  26 Cu     4.192578    5.316911   12.092504    ( 0.0000,  0.0000,  0.0000)
  27 Cu     6.825711    5.293339   12.122265    ( 0.0000,  0.0000,  0.0000)
  28 Cu     8.127923    6.044143   14.243187    ( 0.0000,  0.0000,  0.0000)
  29 Cu     5.517265    6.037820   14.264902    ( 0.0000,  0.0000,  0.0000)
  30 Cu     5.505423    4.532168   16.425635    ( 0.0000,  0.0000,  0.0000)
  31 Cu     2.897034    4.521682   16.429368    ( 0.0000,  0.0000,  0.0000)
  32 Cu     4.198794    5.303810   18.629120    ( 0.0000,  0.0000,  0.0000)
  33 Cu     6.798680    5.289671   18.626266    ( 0.0000,  0.0000,  0.0000)
  34 Cu     8.115793    6.009717   20.726002    ( 0.0000,  0.0000,  0.0000)
  35 Cu     5.492858    6.024080   20.934205    ( 0.0000,  0.0000,  0.0000)
  36 Cu     5.520090    0.002911    9.744357    ( 0.0000,  0.0000,  0.0000)
  37 Cu     6.778820    2.222855    9.858353    ( 0.0000,  0.0000,  0.0000)
  38 Cu     8.116359    3.004320   12.065751    ( 0.0000,  0.0000,  0.0000)
  39 Cu     6.819457    0.734980   12.054195    ( 0.0000,  0.0000,  0.0000)
  40 Cu     8.123726    1.519649   14.252007    ( 0.0000,  0.0000,  0.0000)
  41 Cu     9.430902    3.777101   14.256701    ( 0.0000,  0.0000,  0.0000)
  42 Cu     5.502746    0.003735   16.419139    ( 0.0000,  0.0000,  0.0000)
  43 Cu     6.818235    2.260909   16.447310    ( 0.0000,  0.0000,  0.0000)
  44 Cu     8.138724    3.023619   18.582684    ( 0.0000,  0.0000,  0.0000)
  45 Cu     6.827736    0.723025   18.591232    ( 0.0000,  0.0000,  0.0000)
  46 Cu     8.120926    1.483166   20.726061    ( 0.0000,  0.0000,  0.0000)
  47 Cu     9.438261    3.697706   20.652998    ( 0.0000,  0.0000,  0.0000)
  48 Cu     8.111464    4.479645   10.060115    ( 0.0000,  0.0000,  0.0000)
  49 Cu     9.454031    5.302369   12.070529    ( 0.0000,  0.0000,  0.0000)
  50 Cu    10.743651    6.041994   14.268838    ( 0.0000,  0.0000,  0.0000)
  51 Cu     8.120754    4.533972   16.427705    ( 0.0000,  0.0000,  0.0000)
  52 Cu     9.445578    5.292171   18.572396    ( 0.0000,  0.0000,  0.0000)
  53 Cu    10.728997    6.032800   20.823805    ( 0.0000,  0.0000,  0.0000)
  54 Cl     6.742464    1.897266   22.542746    ( 0.0000,  0.0000,  0.0000)
  55 Cl     4.239102    4.132016    8.142589    ( 0.0000,  0.0000,  0.0000)
  56 Cl     9.138657    5.002639   22.587422    ( 0.0000,  0.0000,  0.0000)
  57 Cl     1.871732    1.038069    8.100025    ( 0.0000,  0.0000,  0.0000)
  58 Cl     8.349680    5.000488    7.945469    ( 0.0000,  0.0000,  0.0000)
  59 Cl     2.564897    1.098293   22.764178    ( 0.0000,  0.0000,  0.0000)
[...]
  2 Cu   -0.00572    0.00731   -0.00286
  3 Cu   -0.00366   -0.00223   -0.00319
  4 Cu    0.00329    0.00159    0.00020
  5 Cu   -0.00226   -0.00652    0.00146
  6 Cu    0.00012    0.00434   -0.00707
  7 Cu   -0.00089   -0.00376   -0.00519
  8 Cu    0.00116    0.00070   -0.01283
  9 Cu   -0.00241    0.00238   -0.00012
 10 Cu    0.00508   -0.00107   -0.00575
 11 Cu    0.00483    0.00200   -0.00249
 12 Cu    0.00243   -0.00079    0.00571
 13 Cu    0.00159   -0.00279   -0.00105
 14 Cu    0.00115    0.00648   -0.00236
 15 Cu    0.00140   -0.00395   -0.00577
 16 Cu   -0.00412    0.00116    0.00465
 17 Cu    0.00141   -0.00436    0.01055
 18 Cu    0.00006   -0.00382    0.00325
 19 Cu    0.00421   -0.00085    0.00449
 20 Cu   -0.00463    0.00463   -0.00301
 21 Cu   -0.00439    0.00800   -0.00389
 22 Cu   -0.00824   -0.00223    0.00055
 23 Cu    0.00946    0.00686    0.00750
 24 Cu    0.01024   -0.00277    0.00545
 25 Cu   -0.00355    0.00571   -0.00047
 26 Cu   -0.00517    0.00069   -0.00772
 27 Cu   -0.00403    0.00139   -0.00095
 28 Cu   -0.00100    0.00078   -0.00786
 29 Cu   -0.00098   -0.00354    0.00612
 30 Cu   -0.00150    0.00007    0.01069
 31 Cu    0.00281   -0.00152    0.00643
 32 Cu   -0.00239   -0.00141   -0.00606
 33 Cu    0.00194    0.00349    0.00530
 34 Cu    0.00762   -0.01112   -0.00630
 35 Cu   -0.00417   -0.00470   -0.00218
 36 Cu   -0.00026   -0.00079    0.00212
 37 Cu   -0.00610   -0.00116   -0.00299
 38 Cu    0.00371   -0.00363   -0.00105
 39 Cu    0.00130    0.00081    0.00354
 40 Cu   -0.00278    0.00038   -0.00612
 41 Cu    0.00020    0.00602    0.00263
 42 Cu   -0.00019    0.00345   -0.00757
 43 Cu   -0.00432   -0.00299   -0.00051
 44 Cu   -0.00381   -0.00159   -0.00260
 45 Cu    0.00525   -0.00195    0.00550
 46 Cu   -0.00250   -0.00437    0.00284
 47 Cu    0.00248    0.00640    0.00413
 48 Cu    0.01080    0.00526   -0.00604
 49 Cu   -0.00135    0.00430   -0.00962
 50 Cu   -0.00068   -0.00703   -0.00023
 51 Cu   -0.00471    0.00134    0.00328
 52 Cu    0.00410    0.00759   -0.00405
 53 Cu    0.00732   -0.01051    0.00605
 54 Cl   -0.01015    0.01397   -0.00867
 55 Cl    0.00654   -0.00535    0.01095
 56 Cl   -0.00638    0.01321   -0.00286
 57 Cl    0.00283   -0.01453    0.00567
 58 Cl    0.01054   -0.02583    0.00503
 59 Cl   -0.01477    0.02885   -0.00367
 60 Cl   -0.00470    0.01048    0.00314
 61 Cl   -0.00448   -0.00363   -0.00254

System changes: positions 

Initializing position-dependent things.

Density initialized from wave functions
                                              
                                              
                                              
                                              
                                Cl            
                     Cl                       
                        CCl   Cu     Cu       
             Cl           Cu                  
                   Cu           Cu            
               Cu   CCu    CCu   Cu           
                                              
               Cu     Cu    Cu                
           Cu   CCu    CCu   Cu               
                                              
            Cu    Cu    CCu   Cu     Cu       
       Cu     Cu   CCu    Cu    Cu            
                                              
               Cu   CCu    CCu   Cu           
                Cu    Cu     Cu               
                                              
           Cu   CCu    CCu   Cu               
            Cu           Cu                   
                  Cu          Cl              
       Cu     Cu   CCu                        
                       Cl                     
            Cl                                
                                              
                                              
                                              
                                              

Positions:
   0 Cu     2.915843   -0.013545   10.013999    ( 0.0000,  0.0000,  0.0000)
   1 Cu     4.208452    2.278167    9.953360    ( 0.0000,  0.0000,  0.0000)
   2 Cu     0.281377    0.022437    9.939199    ( 0.0000,  0.0000,  0.0000)
   3 Cu     1.593708    2.295590   10.033664    ( 0.0000,  0.0000,  0.0000)
   4 Cu     2.899980    3.027847   12.120105    ( 0.0000,  0.0000,  0.0000)
   5 Cu     1.578852    0.752904   12.128173    ( 0.0000,  0.0000,  0.0000)
   6 Cu     5.514889    3.030006   12.139471    ( 0.0000,  0.0000,  0.0000)
   7 Cu     4.213034    0.771471   12.087769    ( 0.0000,  0.0000,  0.0000)
   8 Cu     5.515110    1.508629   14.261649    ( 0.0000,  0.0000,  0.0000)
   9 Cu     6.824713    3.779579   14.295677    ( 0.0000,  0.0000,  0.0000)
  10 Cu     2.894500    1.506790   14.252935    ( 0.0000,  0.0000,  0.0000)
  11 Cu     4.203364    3.784711   14.258902    ( 0.0000,  0.0000,  0.0000)
  12 Cu     2.888034   -0.009767   16.422528    ( 0.0000,  0.0000,  0.0000)
  13 Cu     4.193680    2.256740   16.389199    ( 0.0000,  0.0000,  0.0000)
  14 Cu     0.272533   -0.008680   16.407293    ( 0.0000,  0.0000,  0.0000)
  15 Cu     1.581055    2.255721   16.414102    ( 0.0000,  0.0000,  0.0000)
  16 Cu     2.887200    3.018331   18.541893    ( 0.0000,  0.0000,  0.0000)
  17 Cu     1.564998    0.730603   18.560069    ( 0.0000,  0.0000,  0.0000)
  18 Cu     5.503581    3.005566   18.545290    ( 0.0000,  0.0000,  0.0000)
  19 Cu     4.207471    0.740775   18.542550    ( 0.0000,  0.0000,  0.0000)
  20 Cu     5.487013    1.468694   20.647833    ( 0.0000,  0.0000,  0.0000)
  21 Cu     6.811014    3.755747   20.733717    ( 0.0000,  0.0000,  0.0000)
  22 Cu     2.911463    1.517677   20.586275    ( 0.0000,  0.0000,  0.0000)
  23 Cu     4.188219    3.735175   20.630688    ( 0.0000,  0.0000,  0.0000)
  24 Cu     5.531606    4.564326   10.031859    ( 0.0000,  0.0000,  0.0000)
  25 Cu     2.860804    4.560947   10.003189    ( 0.0000,  0.0000,  0.0000)
  26 Cu     4.200609    5.315781   12.114665    ( 0.0000,  0.0000,  0.0000)
  27 Cu     6.810396    5.295786   12.139821    ( 0.0000,  0.0000,  0.0000)
  28 Cu     8.130206    6.046102   14.262150    ( 0.0000,  0.0000,  0.0000)
  29 Cu     5.514834    6.043036   14.276414    ( 0.0000,  0.0000,  0.0000)
  30 Cu     5.503069    4.527337   16.423857    ( 0.0000,  0.0000,  0.0000)
  31 Cu     2.890681    4.525560   16.412882    ( 0.0000,  0.0000,  0.0000)
  32 Cu     4.192227    5.294378   18.572069    ( 0.0000,  0.0000,  0.0000)
  33 Cu     6.803859    5.262812   18.594490    ( 0.0000,  0.0000,  0.0000)
  34 Cu     8.103382    6.044678   20.656826    ( 0.0000,  0.0000,  0.0000)
  35 Cu     5.524032    6.057249   20.734219    ( 0.0000,  0.0000,  0.0000)
  36 Cu     5.496076   -0.024610    9.948558    ( 0.0000,  0.0000,  0.0000)
  37 Cu     6.830237    2.298848   10.054788    ( 0.0000,  0.0000,  0.0000)
  38 Cu     8.131401    3.018030   12.144331    ( 0.0000,  0.0000,  0.0000)
  39 Cu     6.826179    0.741022   12.113707    ( 0.0000,  0.0000,  0.0000)
  40 Cu     8.128146    1.510793   14.272147    ( 0.0000,  0.0000,  0.0000)
  41 Cu     9.436410    3.780100   14.275330    ( 0.0000,  0.0000,  0.0000)
  42 Cu     5.504365   -0.006655   16.410413    ( 0.0000,  0.0000,  0.0000)
  43 Cu     6.815801    2.251801   16.428298    ( 0.0000,  0.0000,  0.0000)
  44 Cu     8.119227    3.006845   18.573286    ( 0.0000,  0.0000,  0.0000)
  45 Cu     6.821761    0.720832   18.574378    ( 0.0000,  0.0000,  0.0000)
  46 Cu     8.163747    1.473570   20.700193    ( 0.0000,  0.0000,  0.0000)
  47 Cu     9.427919    3.740495   20.661450    ( 0.0000,  0.0000,  0.0000)
  48 Cu     8.113234    4.512357   10.098955    ( 0.0000,  0.0000,  0.0000)
  49 Cu     9.453176    5.304772   12.127387    ( 0.0000,  0.0000,  0.0000)
  50 Cu    10.745845    6.045079   14.278879    ( 0.0000,  0.0000,  0.0000)
  51 Cu     8.123656    4.528991   16.434117    ( 0.0000,  0.0000,  0.0000)
  52 Cu     9.441992    5.279844   18.556149    ( 0.0000,  0.0000,  0.0000)
  53 Cu    10.739037    6.012366   20.744835    ( 0.0000,  0.0000,  0.0000)
  54 Cl     6.770875    1.989572   22.536680    ( 0.0000,  0.0000,  0.0000)
  55 Cl     4.221476    4.050055    8.149923    ( 0.0000,  0.0000,  0.0000)
  56 Cl     9.089816    5.123019   22.552626    ( 0.0000,  0.0000,  0.0000)
  57 Cl     1.922932    0.943096    8.132361    ( 0.0000,  0.0000,  0.0000)
  58 Cl     8.380119    4.954962    7.950570    ( 0.0000,  0.0000,  0.0000)
  59 Cl     2.536586    1.149564   22.731821    ( 0.0000,  0.0000,  0.0000)
  60 Cl     4.721318    4.872002   22.580712    ( 0.0000,  0.0000,  0.0000)
  61 Cl     6.303664    1.163175    8.104207    ( 0.0000,  0.0000,  0.0000)

Unit cell:
           periodic     x           y           z      points  spacing
  1. axis:    yes    7.851007    0.000000    0.000000    45     0.1511
  2. axis:    yes    3.925503    6.799171    0.000000    45     0.1511
  3. axis:    yes    0.000000    0.000000   30.683867   175     0.1753

  Lengths:   7.851007   7.851006  30.683867
  Angles:   90.000000  90.000000  60.000001

Effective grid spacing dv^(1/3) = 0.1666

     iter     time        total  log10-change:
                         energy  eigst   dens
iter:   1 15:19:41 -4384.837897  -3.70
iter:   2 15:20:26 -4384.825410  -4.51  -3.19
iter:   3 15:21:17 -4384.825319c -5.44  -3.54
iter:   4 15:22:20 -4384.824293c -6.05  -3.57
iter:   5 15:23:25 -4384.824020c -5.18  -3.67
iter:   6 15:24:19 -4384.823844c -6.33  -4.10c
iter:   7 15:25:14 -4384.823828c -6.83  -4.16c
iter:   8 15:26:05 -4384.823854c -6.66  -4.26c
iter:   9 15:27:07 -4384.823838c -6.80  -4.42c
iter:  10 15:27:54 -4384.823834c -7.79c -4.60c

Converged after 10 iterations.

Dipole moment: (-9.968101, -3.375218, 0.003236) |e|*Ang

Energy contributions relative to reference atoms: (reference = -2531597.994586)

Kinetic:       +464.711859
Potential:     -500.630189
External:        +0.000000
XC:            -4347.986652
Entropy (-ST):   -0.515139
Local:           -0.661282
--------------------------
Free energy:   -4385.081404
Extrapolated:  -4384.823834

Showing only first 2 kpts
 Kpt  Band  Eigenvalues  Occupancy
  0   323      0.22173    1.09967
  0   324      0.29245    0.75167
  0   325      0.35668    0.48116
  0   326      0.43035    0.26335

  1   323     -0.22608    1.98158
  1   324     -0.20095    1.97638
  1   325      0.00425    1.82977
  1   326      0.08938    1.64208


Fermi level: 0.24173

No gap

Forces in eV/Ang:
  0 Cu    0.00409    0.00269    0.00887
  1 Cu   -0.00150   -0.00454   -0.00501
  2 Cu   -0.00649    0.00720   -0.01018
  3 Cu   -0.00482   -0.00715   -0.00436
  4 Cu    0.00261    0.00159    0.00584
  5 Cu   -0.00292   -0.00734    0.00822
  6 Cu    0.00073    0.00223    0.00110
  7 Cu   -0.00054   -0.00008    0.00677
  8 Cu   -0.00075   -0.00018   -0.00843
  9 Cu   -0.00104    0.00015    0.00239
 10 Cu    0.00339   -0.00133   -0.00340
 11 Cu    0.00572    0.00073    0.00045
 12 Cu   -0.00041   -0.00155    0.00800
 13 Cu    0.00070   -0.00044   -0.00028
 14 Cu    0.00379    0.00631   -0.00166
 15 Cu    0.00191   -0.00581   -0.00247
 16 Cu   -0.00136    0.00405   -0.00334
 17 Cu   -0.00398   -0.00470   -0.00105
 18 Cu   -0.00163   -0.00160   -0.00434
 19 Cu    0.00728   -0.00103   -0.00953
 20 Cu   -0.00568   -0.00081    0.00069
 21 Cu    0.00114    0.00383    0.00413
 22 Cu   -0.00137   -0.00908    0.00645
 23 Cu    0.00314    0.00250    0.00453
 24 Cu    0.00864   -0.00014    0.00035
 25 Cu    0.00666    0.00428   -0.00393
 26 Cu   -0.00577    0.00176   -0.00204
 27 Cu   -0.00626    0.00051    0.01160
 28 Cu    0.00161    0.00140   -0.00706
 29 Cu   -0.00248   -0.00113    0.00763
 30 Cu    0.00107    0.00024    0.00765
 31 Cu    0.00047   -0.00280    0.00501
 32 Cu   -0.00267   -0.00869   -0.01571
 33 Cu    0.00158    0.00023   -0.00786
 34 Cu   -0.00161   -0.00428   -0.00773
 35 Cu    0.00669    0.00416   -0.00328
 36 Cu   -0.00574   -0.00522   -0.00039
 37 Cu    0.00055   -0.00169   -0.00278
 38 Cu    0.00101   -0.00467    0.00582
 39 Cu    0.00239    0.00639    0.01122
 40 Cu   -0.00016    0.00067   -0.00217
 41 Cu   -0.00021    0.00734    0.00192
 42 Cu    0.00133    0.00122   -0.00659
 43 Cu   -0.00588   -0.00182   -0.00255
 44 Cu   -0.00178   -0.00219   -0.00829
 45 Cu    0.00650   -0.00179    0.00020
 46 Cu   -0.00748   -0.00514    0.00435
 47 Cu    0.00461    0.00783    0.00520
 48 Cu    0.00445    0.01282   -0.01919
 49 Cu    0.00325    0.00391    0.00342
 50 Cu   -0.00306   -0.00679    0.00212
 51 Cu   -0.00361    0.00120    0.00294
 52 Cu    0.00505    0.00692   -0.01176
 53 Cu    0.00657   -0.00754    0.01284
 54 Cl    0.00396    0.01004   -0.00083
 55 Cl   -0.00538   -0.00887    0.00606
 56 Cl   -0.00261    0.00330    0.01574
 57 Cl   -0.00026   -0.00466   -0.01484
 58 Cl    0.00058   -0.01842    0.01557
 59 Cl   -0.00598    0.01897    0.00282
 60 Cl   -0.01426   -0.00654    0.01371
 61 Cl    0.00988    0.00956   -0.01106

Timing:                                      incl.     excl.
-------------------------------------------------------------------
Density initialized from wave functions:    90.311    90.310   0.4% |
 Symmetrize density:                         0.001     0.001   0.0% |
Forces:                                    391.381   391.381   1.9% ||
Hamiltonian:                               174.238     0.399   0.0% |
 Atomic:                                     5.607     2.606   0.0% |
  XC Correction:                             3.001     3.001   0.0% |
 Calculate atomic Hamiltonians:             33.638    33.638   0.2% |
 Communicate:                                6.580     6.580   0.0% |
 Initialize Hamiltonian:                     0.002     0.002   0.0% |
 Poisson:                                    0.105     0.105   0.0% |
 XC 3D grid:                               127.907    23.157   0.1% |
  VdW-DF integral:                         104.750     3.799   0.0% |
   Convolution:                              6.122     6.122   0.0% |
   FFT:                                      3.242     3.242   0.0% |
   gather:                                  36.073    36.073   0.2% |
   hmm1:                                     1.997     1.997   0.0% |
   hmm2:                                     4.771     4.771   0.0% |
   iFFT:                                     3.489     3.489   0.0% |
   potential:                               38.963     0.503   0.0% |
    collect:                                 6.135     6.135   0.0% |
    p1:                                     16.611    16.611   0.1% |
    p2:                                      6.593     6.593   0.0% |
    sum:                                     9.120     9.120   0.0% |
   splines:                                  6.294     6.294   0.0% |
LCAO initialization:                       244.213     0.521   0.0% |
 LCAO eigensolver:                          13.764     0.002   0.0% |
  Blacs Orbital Layouts:                     0.870     0.001   0.0% |
   General diagonalize:                      0.856     0.856   0.0% |
   Redistribute coefs:                       0.007     0.007   0.0% |
   Send coefs to domains:                    0.005     0.005   0.0% |
  Calculate projections:                     0.013     0.013   0.0% |
  Distribute overlap matrix:                12.390     0.001   0.0% |
   Scalapack redistribute:                   0.015     0.015   0.0% |
   blocked summation:                       12.374    12.374   0.1% |
  Potential matrix:                          0.263     0.263   0.0% |
  SparseAtomicCorrection:                    0.052     0.052   0.0% |
  Sum over cells:                            0.175     0.175   0.0% |
 LCAO to grid:                             227.446   227.446   1.1% |
 Set positions (LCAO WFS):                   2.483     0.058   0.0% |
  Basic WFS set positions:                   0.002     0.002   0.0% |
  Basis functions set positions:             0.000     0.000   0.0% |
  P tci:                                     0.055     0.055   0.0% |
  ST tci:                                    0.426     0.426   0.0% |
  Scalapack redistribute:                    0.032     0.032   0.0% |
  blocked summation:                         1.757     1.757   0.0% |
  mktci:                                     0.153     0.153   0.0% |
PWDescriptor:                                0.755     0.755   0.0% |
Redistribute:                                0.911     0.911   0.0% |
SCF-cycle:                               19298.504  1198.852   5.9% |-|
 Davidson:                               13431.826  3281.333  16.1% |-----|
  Apply H:                                1468.559  1446.818   7.1% |--|
   HMM T:                                   21.741    21.741   0.1% |
  Subspace diag:                          2338.668     0.079   0.0% |
   calc_h_matrix:                         1773.956   325.862   1.6% ||
    Apply H:                              1448.094  1424.755   7.0% |--|
     HMM T:                                 23.339    23.339   0.1% |
   diagonalize:                            103.242   103.242   0.5% |
   rotate_psi:                             461.391   461.391   2.3% ||
  calc. matrices:                         5027.268  2220.739  10.9% |---|
   Apply H:                               2806.530  2763.762  13.6% |----|
    HMM T:                                  42.767    42.767   0.2% |
  diagonalize:                             447.530   447.530   2.2% ||
  rotate_psi:                              868.468   868.468   4.3% |-|
 Density:                                 1643.945     0.016   0.0% |
  Atomic density matrices:                   9.737     9.737   0.0% |
  Mix:                                     728.654   728.654   3.6% ||
  Multipole moments:                         0.424     0.424   0.0% |
  Pseudo density:                          905.114   905.097   4.5% |-|
   Symmetrize density:                       0.017     0.017   0.0% |
 Hamiltonian:                             2948.100     6.354   0.0% |
  Atomic:                                   94.267    48.768   0.2% |
   XC Correction:                           45.500    45.500   0.2% |
  Calculate atomic Hamiltonians:           590.894   590.894   2.9% ||
  Communicate:                              93.121    93.121   0.5% |
  Poisson:                                   1.851     1.851   0.0% |
  XC 3D grid:                             2161.612   321.626   1.6% ||
   VdW-DF integral:                       1839.987    65.315   0.3% |
    Convolution:                           104.541   104.541   0.5% |
    FFT:                                    56.009    56.009   0.3% |
    gather:                                761.787   761.787   3.7% ||
    hmm1:                                   33.287    33.287   0.2% |
    hmm2:                                   79.775    79.775   0.4% |
    iFFT:                                   58.325    58.325   0.3% |
    potential:                             680.943     7.559   0.0% |
     collect:                              100.947   100.947   0.5% |
     p1:                                   292.413   292.413   1.4% ||
     p2:                                   112.124   112.124   0.6% |
     sum:                                  167.900   167.900   0.8% |
    splines:                                 0.004     0.004   0.0% |
 Orthonormalize:                            75.781     0.008   0.0% |
  calc_s_matrix:                             9.178     9.178   0.0% |
  inverse-cholesky:                          3.810     3.810   0.0% |
  projections:                              49.524    49.524   0.2% |
  rotate_psi_s:                             13.261    13.261   0.1% |
Set symmetry:                                0.001     0.001   0.0% |
Other:                                     135.241   135.241   0.7% |
-------------------------------------------------------------------
Total:                                             20335.555 100.0%

Memory usage: 1.26 GiB
Date: Mon Oct 17 15:28:13 2022
