
  ___ ___ ___ _ _ _  
 |   |   |_  | | | | 
 | | | | | . | | | | 
 |__ |  _|___|_____|  22.1.0
 |___|_|             

User:   thorkong@node429.cluster
Date:   Tue Oct 18 21:13:02 2022
Arch:   x86_64
Pid:    36498
Python: 3.10.5
gpaw:   /groups/kemi/thorkong/miniconda3/envs/gpaw22/lib/python3.10/site-packages/gpaw
_gpaw:  /groups/kemi/thorkong/miniconda3/envs/gpaw22/lib/python3.10/site-packages/
        _gpaw.cpython-310-x86_64-linux-gnu.so
ase:    /groups/kemi/thorkong/miniconda3/envs/gpaw22/lib/python3.10/site-packages/ase (version 3.22.1)
numpy:  /groups/kemi/thorkong/miniconda3/envs/gpaw22/lib/python3.10/site-packages/numpy (version 1.23.0)
scipy:  /groups/kemi/thorkong/miniconda3/envs/gpaw22/lib/python3.10/site-packages/scipy (version 1.8.1)
libxc:  5.2.3
units:  Angstrom and eV
cores: 32
OpenMP: True
OMP_NUM_THREADS: 1

Input parameters:
  basis: dzp
  kpts: [4 4 1]
  mode: {ecut: 600.0,
         name: pw}
  xc: BEEF-vdW

System changes: positions, numbers, cell, pbc, initial_charges, initial_magmoms 

Initialize ...

Cu-setup:
  name: Copper
  id: f1c4d45d90492f1bbfdcb091e8418fdf
  Z: 29.0
  valence: 11
  core: 18
  charge: 0.0
  file: /groups/kemi/thorkong/miniconda3/envs/gpaw22/share/gpaw/Cu.PBE.gz
  compensation charges: gauss, rc=0.33, lmax=2
  cutoffs: 2.06(filt), 2.43(core),
  valence states:
                energy  radius
    4s(1.00)    -4.609   1.164
    4p(0.00)    -0.698   1.164
    3d(10.00)    -5.039   1.058
    *s          22.603   1.164
    *p          26.513   1.164
    *d          22.172   1.058

  LCAO basis set for Cu:
    Name: dzp
    File: /groups/kemi/thorkong/miniconda3/envs/gpaw22/share/gpaw/Cu.dzp.basis.gz
    Number of radial functions: 5
    Number of spherical harmonics: 15
      l=0, rc=8.9688 Bohr: 4s-sz confined orbital
      l=2, rc=5.1719 Bohr: 3d-sz confined orbital
      l=0, rc=5.3281 Bohr: 4s-dz split-valence wave
      l=2, rc=3.1406 Bohr: 3d-dz split-valence wave
      l=1, rc=8.9688 Bohr: p-type Gaussian polarization

Cl-setup:
  name: Chlorine
  id: 726897f06f34e53cf8e33b5885a02604
  Z: 17.0
  valence: 7
  core: 10
  charge: 0.0
  file: /groups/kemi/thorkong/miniconda3/envs/gpaw22/share/gpaw/Cl.PBE.gz
  compensation charges: gauss, rc=0.25, lmax=2
  cutoffs: 1.40(filt), 1.49(core),
  valence states:
                energy  radius
    3s(2.00)   -20.689   0.794
    3p(5.00)    -8.594   0.794
    *s           6.523   0.794
    *p          18.617   0.794
    *d           0.000   0.794

  LCAO basis set for Cl:
    Name: dzp
    File: /groups/kemi/thorkong/miniconda3/envs/gpaw22/share/gpaw/Cl.dzp.basis.gz
    Number of radial functions: 5
    Number of spherical harmonics: 13
      l=0, rc=5.1719 Bohr: 3s-sz confined orbital
      l=1, rc=6.2656 Bohr: 3p-sz confined orbital
      l=0, rc=2.8281 Bohr: 3s-dz split-valence wave
      l=1, rc=3.5156 Bohr: 3p-dz split-valence wave
      l=2, rc=6.2656 Bohr: d-type Gaussian polarization

Reference energy: -4472718.769496

Spin-paired calculation

Convergence criteria:
 Maximum [total energy] change in last 3 cyles: 0.0005 eV / electron
 Maximum integral of absolute [dens]ity change: 0.0001 electrons / valence electron
 Maximum integral of absolute [eigenst]ate change: 4e-08 eV^2 / valence electron
 Maximum number of scf [iter]ations: 333
 (Square brackets indicate name in SCF output, whereas a 'c' in
 the SCF output indicates the quantity has converged.)

Symmetries present (total): 1

  ( 1  0  0)
  ( 0  1  0)
  ( 0  0  1)

16 k-points: 4 x 4 x 1 Monkhorst-Pack grid
8 k-points in the irreducible part of the Brillouin zone
       k-points in crystal coordinates                weights
   0:     0.12500000   -0.37500000    0.00000000          2/16
   1:     0.12500000   -0.12500000    0.00000000          2/16
   2:     0.12500000    0.12500000    0.00000000          2/16
   3:     0.12500000    0.37500000    0.00000000          2/16
   4:     0.37500000   -0.37500000    0.00000000          2/16
   5:     0.37500000   -0.12500000    0.00000000          2/16
   6:     0.37500000    0.12500000    0.00000000          2/16
   7:     0.37500000    0.37500000    0.00000000          2/16

Wave functions: Plane wave expansion
  Cutoff energy: 600.000 eV
  Number of coefficients (min, max): 96699, 96750
  Pulay-stress correction: 0.000000 eV/Ang^3 (de/decut=0.000000)
  Using FFTW library
  ScaLapack parameters: grid=2x2, blocksize=64
  Wavefunction extrapolation:
    Improved wavefunction reuse through dual PAW basis 

Occupation numbers: Fermi-Dirac: width=0.1000 eV
 

Eigensolver
   Davidson(niter=2) 

Densities:
  Coarse grid: 70*42*192 grid
  Fine grid: 140*84*384 grid
  Total Charge: 0.000000 

Density mixing:
  Method: separate
  Backend: pulay
  Linear mixing parameter: 0.05
  Mixing with 5 old densities
  Damping of long wave oscillations: 50 

Hamiltonian:
  XC and Coulomb potentials evaluated on a 140*84*384 grid
  Using the BEEF-vdW Exchange-Correlation functional
  External potential:
    NoExternalPotential
 

XC parameters: BEEF-vdW with 2 nearest neighbor stencil

Memory estimate:
  Process memory now: 344.08 MiB
  Calculator: 2231.76 MiB
    Density: 70.86 MiB
      Arrays: 27.99 MiB
      Localized functions: 32.10 MiB
      Mixer: 10.77 MiB
    Hamiltonian: 19.09 MiB
      Arrays: 18.30 MiB
      XC: 0.00 MiB
      Poisson: 0.00 MiB
      vbar: 0.78 MiB
    Wavefunctions: 2141.82 MiB
      Arrays psit_nG: 1015.69 MiB
      Eigensolver: 1095.32 MiB
      Projections: 4.94 MiB
      Projectors: 3.69 MiB
      PW-descriptor: 22.18 MiB

Total number of cores used: 32
Parallelization over k-points: 8
Domain decomposition: 1 x 1 x 4
                      2 x 2 x 8 (xc only)

Number of atoms: 108
Number of atomic orbitals: 1596
Number of bands in calculation: 688
Number of valence electrons: 1140
Bands to converge: occupied

... initialized

Initializing position-dependent things.

Density initialized from atomic densities
Creating initial wave functions:
  688 bands from LCAO basis set

      .----------------------------.  
     /|                            |  
    / |                            |  
   /  |                            |  
  /   |                            |  
 *    |                            |  
 |    |                            |  
 |    |                            |  
 |    |                            |  
 |    |                            |  
 |    |        Cl              Cl  |  
 |    |                            |  
 |    |               Cl           |  
 |    |      CCl   Cu      Clu     |  
 |    |       Cu                   |  
 |   Cl Cu       Cu    Cu      Cu  |  
 |    |    Cu    Cu   Cu Cu    Cu  |  
 |    |    Cu       Cu    Cu   Cu  |  
 |   CCu   Cu       Cu   Cu  Cu    |  
 |   Cu    Cu Cu    Cu Cu    Cu    |  
 |    | Cu    Cu       Cu    Cu   Cu  
 | Cu | Cu    Cu       Cu   Cu     |  
 | Cu | Cu  CuCu Cu    Cu          |  
 |    |    Cu    Cu    Cu Cu    Cu |  
 |    |    Cu    Cu Cu    Cu    Cu |  
 |    Cu   Cu  Cu   Cu    Cu       |  
 |    Cu       Cu   Cu       Cu    |  
 |    |  Cu    Cu   Cu Cu    Cu    |  
 | Cu |  Cu   Cu       Cu    Cu    |  
 | Cu |  Cu    Cu Cu   Cu  Cu      |  
 |    Cl    Cu   Cu       Cu    Cu |  
 |    Cu    Cu       Cu    Cu      |  
 |    Cu     Cl      Cu   Cl Cu    |  
 |    |           Cl               |  
 |    |  Cl             Cul        |  
 |    |                            |  
 |    |                            |  
 |    |                            |  
 |    |                            |  
 |    |                            |  
 |    |                            |  
 |    .----------------------------.  
 |   /                            /   
 |  /                            /    
 | /                            /     
 |/                            /      
 *----------------------------*       

Positions:
   0 Cu     3.491117   -0.007960    9.919020    ( 0.0000,  0.0000,  0.0000)
   1 Cu     1.532268    1.817026   10.470462    ( 0.0000,  0.0000,  0.0000)
   2 Cu     7.381525    1.896477   10.469170    ( 0.0000,  0.0000,  0.0000)
   3 Cu     9.228446    0.036387    9.936927    ( 0.0000,  0.0000,  0.0000)
   4 Cu    11.444933    0.022744   11.248113    ( 0.0000,  0.0000,  0.0000)
   5 Cu     9.723161    1.896734   11.754415    ( 0.0000,  0.0000,  0.0000)
   6 Cu     3.870215    1.809571   11.752318    ( 0.0000,  0.0000,  0.0000)
   7 Cu     5.696326   -0.003287   11.215052    ( 0.0000,  0.0000,  0.0000)
   8 Cu     8.004502    0.003328   12.254263    ( 0.0000,  0.0000,  0.0000)
   9 Cu     6.247377    1.861439   12.899404    ( 0.0000,  0.0000,  0.0000)
  10 Cu     0.401311    1.841760   12.885587    ( 0.0000,  0.0000,  0.0000)
  11 Cu     2.139368    0.011235   12.288618    ( 0.0000,  0.0000,  0.0000)
  12 Cu     4.432966   -0.000355   13.514709    ( 0.0000,  0.0000,  0.0000)
  13 Cu     2.672854    1.867894   14.111564    ( 0.0000,  0.0000,  0.0000)
  14 Cu     8.522138    1.840119   14.098834    ( 0.0000,  0.0000,  0.0000)
  15 Cu    10.294987    0.003056   13.483242    ( 0.0000,  0.0000,  0.0000)
  16 Cu     0.911405    0.006524   14.679179    ( 0.0000,  0.0000,  0.0000)
  17 Cu    10.848623    1.857231   15.247120    ( 0.0000,  0.0000,  0.0000)
  18 Cu     4.990557    1.847376   15.251841    ( 0.0000,  0.0000,  0.0000)
  19 Cu     6.764446   -0.006868   14.663847    ( 0.0000,  0.0000,  0.0000)
  20 Cu     9.075667    0.007812   15.846692    ( 0.0000,  0.0000,  0.0000)
  21 Cu     7.285017    1.846653   16.441917    ( 0.0000,  0.0000,  0.0000)
  22 Cu     1.445380    1.852557   16.450567    ( 0.0000,  0.0000,  0.0000)
  23 Cu     3.203507   -0.004212   15.854487    ( 0.0000,  0.0000,  0.0000)
  24 Cu     5.526322    0.003760   17.015039    ( 0.0000,  0.0000,  0.0000)
  25 Cu     3.735211    1.842500   17.610638    ( 0.0000,  0.0000,  0.0000)
  26 Cu     9.607819    1.854734   17.602600    ( 0.0000,  0.0000,  0.0000)
  27 Cu    11.365981   -0.002032   17.006535    ( 0.0000,  0.0000,  0.0000)
  28 Cu     1.962890   -0.006615   18.210124    ( 0.0000,  0.0000,  0.0000)
  29 Cu     0.195822    1.843806   18.778382    ( 0.0000,  0.0000,  0.0000)
  30 Cu     6.046608    1.857343   18.793378    ( 0.0000,  0.0000,  0.0000)
  31 Cu     7.820723    0.002898   18.205315    ( 0.0000,  0.0000,  0.0000)
  32 Cu    10.138356   -0.017582   19.345540    ( 0.0000,  0.0000,  0.0000)
  33 Cu     8.378660    1.850775   19.943416    ( 0.0000,  0.0000,  0.0000)
  34 Cu     2.516870    1.847339   19.974711    ( 0.0000,  0.0000,  0.0000)
  35 Cu     4.289111    0.010381   19.358318    ( 0.0000,  0.0000,  0.0000)
  36 Cu     6.564099   -0.011008   20.557744    ( 0.0000,  0.0000,  0.0000)
  37 Cu     4.806853    1.847108   21.204333    ( 0.0000,  0.0000,  0.0000)
  38 Cu    10.671747    1.839064   21.169255    ( 0.0000,  0.0000,  0.0000)
  39 Cu     0.706535    0.008670   20.571814    ( 0.0000,  0.0000,  0.0000)
  40 Cu     3.089562   -0.046957   21.703983    ( 0.0000,  0.0000,  0.0000)
  41 Cu     1.366689    1.827580   22.209870    ( 0.0000,  0.0000,  0.0000)
  42 Cu     7.114458    1.853923   22.241722    ( 0.0000,  0.0000,  0.0000)
  43 Cu     8.941826    0.041261   21.705721    ( 0.0000,  0.0000,  0.0000)
  44 Cu    11.277269    0.033192   22.988296    ( 0.0000,  0.0000,  0.0000)
  45 Cu     9.321469    1.858396   23.540365    ( 0.0000,  0.0000,  0.0000)
  46 Cu     3.584973    1.813497   23.522668    ( 0.0000,  0.0000,  0.0000)
  47 Cu     5.428663   -0.046026   22.989182    ( 0.0000,  0.0000,  0.0000)
  48 Cu     3.376651    3.737389    9.936927    ( 0.0000,  0.0000,  0.0000)
  49 Cu     1.529730    5.597478   10.469170    ( 0.0000,  0.0000,  0.0000)
  50 Cu     7.384063    5.518028   10.470463    ( 0.0000,  0.0000,  0.0000)
  51 Cu     9.342917    3.693040    9.919024    ( 0.0000,  0.0000,  0.0000)
  52 Cu    11.548118    3.697714   11.215051    ( 0.0000,  0.0000,  0.0000)
  53 Cu     9.722009    5.510572   11.752315    ( 0.0000,  0.0000,  0.0000)
  54 Cu     3.871366    5.597736   11.754418    ( 0.0000,  0.0000,  0.0000)
  55 Cu     5.593139    3.723745   11.248114    ( 0.0000,  0.0000,  0.0000)
  56 Cu     7.991162    3.712235   12.288619    ( 0.0000,  0.0000,  0.0000)
  57 Cu     6.253105    5.542760   12.885588    ( 0.0000,  0.0000,  0.0000)
  58 Cu     0.395583    5.562438   12.899403    ( 0.0000,  0.0000,  0.0000)
  59 Cu     2.152702    3.704328   12.254259    ( 0.0000,  0.0000,  0.0000)
  60 Cu     4.443194    3.704056   13.483246    ( 0.0000,  0.0000,  0.0000)
  61 Cu     2.670343    5.541120   14.098835    ( 0.0000,  0.0000,  0.0000)
  62 Cu     8.524650    5.568895   14.111563    ( 0.0000,  0.0000,  0.0000)
  63 Cu    10.284763    3.700645   13.514710    ( 0.0000,  0.0000,  0.0000)
  64 Cu     0.912650    3.694130   14.663847    ( 0.0000,  0.0000,  0.0000)
  65 Cu    10.842350    5.548377   15.251840    ( 0.0000,  0.0000,  0.0000)
  66 Cu     4.996828    5.558231   15.247121    ( 0.0000,  0.0000,  0.0000)
  67 Cu     6.763204    3.707523   14.679180    ( 0.0000,  0.0000,  0.0000)
  68 Cu     9.055302    3.696789   15.854485    ( 0.0000,  0.0000,  0.0000)
  69 Cu     7.297177    5.553557   16.450564    ( 0.0000,  0.0000,  0.0000)
  70 Cu     1.433223    5.547654   16.441914    ( 0.0000,  0.0000,  0.0000)
  71 Cu     3.223871    3.708813   15.846693    ( 0.0000,  0.0000,  0.0000)
  72 Cu     5.514186    3.698967   17.006537    ( 0.0000,  0.0000,  0.0000)
  73 Cu     3.756025    5.555734   17.602602    ( 0.0000,  0.0000,  0.0000)
  74 Cu     9.587005    5.543500   17.610637    ( 0.0000,  0.0000,  0.0000)
  75 Cu    11.378115    3.704760   17.015040    ( 0.0000,  0.0000,  0.0000)
  76 Cu     1.968932    3.703896   18.205316    ( 0.0000,  0.0000,  0.0000)
  77 Cu     0.194812    5.558346   18.793378    ( 0.0000,  0.0000,  0.0000)
  78 Cu     6.047612    5.544804   18.778380    ( 0.0000,  0.0000,  0.0000)
  79 Cu     7.814683    3.694383   18.210123    ( 0.0000,  0.0000,  0.0000)
  80 Cu    10.140905    3.711380   19.358317    ( 0.0000,  0.0000,  0.0000)
  81 Cu     8.368659    5.548339   19.974703    ( 0.0000,  0.0000,  0.0000)
  82 Cu     2.526866    5.551775   19.943413    ( 0.0000,  0.0000,  0.0000)
  83 Cu     4.286562    3.683416   19.345541    ( 0.0000,  0.0000,  0.0000)
  84 Cu     6.558332    3.709669   20.571813    ( 0.0000,  0.0000,  0.0000)
  85 Cu     4.819954    5.540063   21.169252    ( 0.0000,  0.0000,  0.0000)
  86 Cu    10.658657    5.548108   21.204340    ( 0.0000,  0.0000,  0.0000)
  87 Cu     0.712302    3.689993   20.557746    ( 0.0000,  0.0000,  0.0000)
  88 Cu     3.090033    3.742258   21.705727    ( 0.0000,  0.0000,  0.0000)
  89 Cu     1.262669    5.554922   22.241722    ( 0.0000,  0.0000,  0.0000)
  90 Cu     7.218481    5.528580   22.209867    ( 0.0000,  0.0000,  0.0000)
  91 Cu     8.941355    3.654039   21.703977    ( 0.0000,  0.0000,  0.0000)
  92 Cu    11.280457    3.654973   22.989182    ( 0.0000,  0.0000,  0.0000)
  93 Cu     9.436769    5.514500   23.522668    ( 0.0000,  0.0000,  0.0000)
  94 Cu     3.469666    5.559398   23.540356    ( 0.0000,  0.0000,  0.0000)
  95 Cu     5.425475    3.734189   22.988295    ( 0.0000,  0.0000,  0.0000)
  96 Cl     9.661259    3.662515   24.997171    ( 0.0000,  0.0000,  0.0000)
  97 Cl     6.806315    5.790508   24.444902    ( 0.0000,  0.0000,  0.0000)
  98 Cl     4.122315    3.676342   24.932541    ( 0.0000,  0.0000,  0.0000)
  99 Cl     3.809462   -0.038485   24.997172    ( 0.0000,  0.0000,  0.0000)
 100 Cl     9.974106   -0.024653   24.932542    ( 0.0000,  0.0000,  0.0000)
 101 Cl    12.658104    2.089506   24.444896    ( 0.0000,  0.0000,  0.0000)
 102 Cl     6.004195    3.460602    9.012389    ( 0.0000,  0.0000,  0.0000)
 103 Cl     2.837310    1.874586    8.528277    ( 0.0000,  0.0000,  0.0000)
 104 Cl     3.150279    5.590072    8.463905    ( 0.0000,  0.0000,  0.0000)
 105 Cl     0.152402   -0.240397    9.012392    ( 0.0000,  0.0000,  0.0000)
 106 Cl    -2.701517    1.889074    8.463906    ( 0.0000,  0.0000,  0.0000)
 107 Cl    -3.014486    5.575587    8.528276    ( 0.0000,  0.0000,  0.0000)

Unit cell:
           periodic     x           y           z      points  spacing
  1. axis:    yes   11.703590    0.000000    0.000000    70     0.1672
  2. axis:    yes    0.000000    7.402000    0.000000    42     0.1762
  3. axis:    no     0.000000    0.000000   33.459128   192     0.1743

  Lengths:  11.703590   7.402000  33.459128
  Angles:   90.000000  90.000000  90.000000

Effective grid spacing dv^(1/3) = 0.1725

     iter     time        total  log10-change:
                         energy  eigst   dens
iter:   1 21:37:13 -8314.418113
iter:   2 21:41:14 -9525.643068  +1.58  -0.77
iter:   3 21:45:13 -7938.915188  +1.39  -0.61
iter:   4 21:49:11 -7810.717221  -0.52  -1.11
iter:   5 21:53:12 -7893.074624  -1.20  -1.28
iter:   6 21:57:13 -7784.845990  -1.64  -1.16
iter:   7 22:01:15 -7761.846161  -1.27  -1.35
iter:   8 22:05:16 -7752.409113  -1.39  -1.53
iter:   9 22:09:16 -7728.196607  -2.03  -1.52
iter:  10 22:13:16 -7721.043175  -2.29  -1.60
iter:  11 22:17:16 -7715.731339  -1.63  -1.65
iter:  12 22:21:17 -7717.205997  -2.50  -1.69
iter:  13 22:25:18 -7719.860201  -1.55  -1.74
iter:  14 22:29:22 -7718.436791  -2.05  -1.93
iter:  15 22:33:25 -7715.157387  -2.54  -2.09
iter:  16 22:37:27 -7714.159439  -2.87  -2.23
iter:  17 22:47:28 -7713.666676  -2.47  -2.34
iter:  18 22:51:28 -7713.490023  -3.52  -2.52
iter:  19 22:55:27 -7713.501481c -3.53  -2.68
iter:  20 22:59:27 -7713.516565c -3.91  -2.88
iter:  21 23:03:28 -7713.444417c -4.06  -2.95
iter:  22 23:07:31 -7713.439168c -4.81  -3.18
iter:  23 23:11:31 -7713.435461c -5.07  -3.26
iter:  24 23:15:31 -7713.435199c -5.29  -3.32
iter:  25 23:19:34 -7713.436508c -5.42  -3.36
iter:  26 23:23:56 -7713.437564c -5.14  -3.44
iter:  27 23:28:20 -7713.435568c -5.77  -3.59
iter:  28 23:32:44 -7713.435434c -5.78  -3.73
iter:  29 23:37:07 -7713.435681c -5.88  -3.80
iter:  30 23:41:24 -7713.435086c -6.17  -3.85
iter:  31 23:45:48 -7713.435105c -6.56  -4.22c
iter:  32 23:50:13 -7713.435047c -6.92  -4.32c
iter:  33 23:54:36 -7713.435087c -6.64  -4.42c
iter:  34 23:59:00 -7713.435085c -7.27  -4.52c
iter:  35 00:03:25 -7713.435087c -7.40  -4.61c
iter:  36 00:07:43 -7713.435020c -7.26  -4.54c
iter:  37 00:12:08 -7713.435017c -8.19c -4.85c

Converged after 37 iterations.

Dipole moment: (-7.183926, 17.642749, -0.002774) |e|*Ang

Energy contributions relative to reference atoms: (reference = -4472718.769496)

Kinetic:       +785.289242
Potential:     -856.240684
External:        +0.000000
XC:            -7640.587553
Entropy (-ST):   -0.972942
Local:           -1.409552
--------------------------
Free energy:   -7713.921488
Extrapolated:  -7713.435017

Showing only first 2 kpts
 Kpt  Band  Eigenvalues  Occupancy
  0   568      0.21976    0.96289
  0   569      0.28978    0.63101
  0   570      0.31707    0.51944
  0   571      0.42920    0.20519

  1   568     -0.19104    1.96520
  1   569      0.01756    1.75038
  1   570      0.07080    1.60922
  1   571      0.12576    1.40771


Fermi level: 0.21233

No gap

Forces in eV/Ang:
  0 Cu   -0.02016    0.07446    0.05203
  1 Cu   -0.09377    0.09203    0.16700
  2 Cu   -0.06064   -0.05290   -0.04091
  3 Cu   -0.00423   -0.00126   -0.01306
  4 Cu    0.00691   -0.01587   -0.08730
  5 Cu    0.02358   -0.03136   -0.04592
  6 Cu    0.06267    0.04883   -0.03110
  7 Cu   -0.09669    0.00569    0.06525
  8 Cu   -0.00146    0.02530   -0.04547
  9 Cu   -0.04665   -0.04515   -0.00336
 10 Cu   -0.03683    0.06252    0.01758
 11 Cu   -0.00087   -0.03309    0.09720
 12 Cu    0.01506    0.02152   -0.02979
 13 Cu   -0.02195   -0.02660   -0.04182
 14 Cu   -0.02095    0.02882   -0.00840
 15 Cu   -0.03907   -0.00726    0.04215
 16 Cu   -0.01213   -0.01233   -0.03909
 17 Cu   -0.02710   -0.01223   -0.03506
 18 Cu   -0.01320    0.00848   -0.01216
 19 Cu   -0.00119    0.02216    0.01349
 20 Cu   -0.02973   -0.01398   -0.00552
 21 Cu    0.02461    0.00652   -0.00284
 22 Cu   -0.04253    0.00201    0.00099
 23 Cu    0.03668    0.00334   -0.03088
 24 Cu   -0.02418   -0.00616    0.00532
 25 Cu    0.03157    0.01458    0.00558
 26 Cu   -0.03770   -0.00378    0.03231
 27 Cu    0.04191   -0.00281    0.00055
 28 Cu    0.02472    0.01076    0.03649
 29 Cu    0.01537    0.01255    0.03969
 30 Cu    0.00356   -0.02210   -0.01166
 31 Cu    0.01205   -0.00715    0.01438
 32 Cu    0.02277    0.02694    0.04458
 33 Cu   -0.01688   -0.02120    0.02574
 34 Cu    0.03662    0.00682   -0.04164
 35 Cu    0.02222   -0.02893    0.01125
 36 Cu    0.04601    0.04367    0.00606
 37 Cu    0.00024   -0.02494    0.04119
 38 Cu    0.00543    0.03253   -0.09736
 39 Cu    0.03675   -0.06117   -0.01583
 40 Cu   -0.03038    0.03534    0.04488
 41 Cu   -0.00373    0.01491    0.08541
 42 Cu    0.10350   -0.00629   -0.05937
 43 Cu   -0.06697   -0.05171    0.03221
 44 Cu    0.09875   -0.09073   -0.16822
 45 Cu    0.01436   -0.07322   -0.05282
 46 Cu   -0.00178    0.00102    0.01073
 47 Cu    0.06672    0.05166    0.03914
 48 Cu   -0.00422   -0.00126   -0.01305
 49 Cu   -0.06064   -0.05290   -0.04091
 50 Cu   -0.09377    0.09202    0.16700
 51 Cu   -0.02019    0.07447    0.05201
 52 Cu   -0.09668    0.00568    0.06526
 53 Cu    0.06267    0.04882   -0.03108
 54 Cu    0.02357   -0.03138   -0.04594
 55 Cu    0.00690   -0.01588   -0.08732
 56 Cu   -0.00086   -0.03309    0.09720
 57 Cu   -0.03682    0.06252    0.01759
 58 Cu   -0.04666   -0.04514   -0.00335
 59 Cu   -0.00142    0.02530   -0.04545
 60 Cu   -0.03909   -0.00726    0.04213
 61 Cu   -0.02095    0.02881   -0.00840
 62 Cu   -0.02196   -0.02661   -0.04182
 63 Cu    0.01505    0.02152   -0.02981
 64 Cu   -0.00118    0.02217    0.01349
 65 Cu   -0.01319    0.00848   -0.01216
 66 Cu   -0.02709   -0.01223   -0.03506
 67 Cu   -0.01215   -0.01233   -0.03909
 68 Cu    0.03668    0.00333   -0.03087
 69 Cu   -0.04254    0.00201    0.00101
 70 Cu    0.02460    0.00652   -0.00282
 71 Cu   -0.02972   -0.01399   -0.00552
 72 Cu    0.04191   -0.00281    0.00054
 73 Cu   -0.03771   -0.00378    0.03230
 74 Cu    0.03157    0.01458    0.00559
 75 Cu   -0.02417   -0.00615    0.00532
 76 Cu    0.01203   -0.00714    0.01438
 77 Cu    0.00357   -0.02211   -0.01166
 78 Cu    0.01539    0.01256    0.03969
 79 Cu    0.02473    0.01076    0.03649
 80 Cu    0.02222   -0.02892    0.01126
 81 Cu    0.03667    0.00682   -0.04160
 82 Cu   -0.01688   -0.02120    0.02577
 83 Cu    0.02277    0.02695    0.04458
 84 Cu    0.03674   -0.06117   -0.01584
 85 Cu    0.00541    0.03254   -0.09735
 86 Cu    0.00017   -0.02494    0.04116
 87 Cu    0.04602    0.04366    0.00605
 88 Cu   -0.06698   -0.05169    0.03219
 89 Cu    0.10348   -0.00628   -0.05938
 90 Cu   -0.00371    0.01491    0.08545
 91 Cu   -0.03037    0.03538    0.04491
 92 Cu    0.06671    0.05167    0.03914
 93 Cu   -0.00180    0.00101    0.01072
 94 Cu    0.01441   -0.07323   -0.05276
 95 Cu    0.09875   -0.09072   -0.16821
 96 Cl   -0.00552    0.01232   -0.09100
 97 Cl    0.09686    0.13760   -0.13223
 98 Cl   -0.02877    0.01976    0.05397
 99 Cl   -0.00551    0.01230   -0.09102
100 Cl   -0.02877    0.01974    0.05399
101 Cl    0.09687    0.13760   -0.13218
102 Cl   -0.09559   -0.13700    0.13022
103 Cl    0.02670   -0.01919   -0.06141
104 Cl    0.00423   -0.01452    0.08315
105 Cl   -0.09559   -0.13701    0.13020
106 Cl    0.00423   -0.01452    0.08316
107 Cl    0.02670   -0.01920   -0.06140

System changes: positions 

Initializing position-dependent things.

Density initialized from wave functions
      .----------------------------.  
     /|                            |  
    / |                            |  
   /  |                            |  
  /   |                            |  
 *    |                            |  
 |    |                            |  
 |    |                            |  
 |    |                            |  
 |    |                            |  
 |    |        Cl              Cl  |  
 |    |                            |  
 |    |               Cl           |  
 |    |      CCl   Cu      Clu     |  
 |    |       Cu                   |  
 |   Cl Cu       Cu    Cu      Cu  |  
 |    |    Cu    Cu   Cu Cu    Cu  |  
 |    |    Cu             Cu   Cu  |  
 |   CCu   Cu       Cu   Cu  Cu    |  
 |   Cu    Cu Cu    Cu Cu    Cu    |  
 |    | Cu    Cu       Cu    Cu   Cu  
 | Cu | Cu    Cu       Cu    Cu    |  
 | Cu | Cu  CuCu Cu    Cu          |  
 |    |     Cu   Cu    Cu Cu    Cu |  
 |    |    Cu    Cu Cu    Cu    Cu |  
 |    Cu   Cu  Cu   Cu    Cu       |  
 |    Cu       Cu   Cu       Cu    |  
 |    |  Cu    Cu   Cu Cu    Cu    |  
 | Cu |  Cu   Cu       Cu    Cu    |  
 | Cu |  Cu Cu Cu Cu   Cu  Cu      |  
 |    Cl    Cu   Cu       Cu    Cu |  
 |    Cu    Cu       Cu    Cu      |  
 |    Cu     Cl      Cu   Cl Cu    |  
 |    |           Cl               |  
 |    |  Cl             Cul        |  
 |    |                            |  
 |    |                            |  
 |    |                            |  
 |    |                            |  
 |    |                            |  
 |    |                            |  
 |    .----------------------------.  
 |   /                            /   
 |  /                            /    
 | /                            /     
 |/                            /      
 *----------------------------*       

Positions:
   0 Cu     3.489101   -0.000514    9.924223    ( 0.0000,  0.0000,  0.0000)
   1 Cu     1.522891    1.826229   10.487162    ( 0.0000,  0.0000,  0.0000)
   2 Cu     7.375461    1.891187   10.465079    ( 0.0000,  0.0000,  0.0000)
   3 Cu     9.228023    0.036261    9.935621    ( 0.0000,  0.0000,  0.0000)
   4 Cu    11.445624    0.021157   11.239383    ( 0.0000,  0.0000,  0.0000)
   5 Cu     9.725519    1.893598   11.749823    ( 0.0000,  0.0000,  0.0000)
   6 Cu     3.876482    1.814454   11.749208    ( 0.0000,  0.0000,  0.0000)
   7 Cu     5.686657   -0.002718   11.221577    ( 0.0000,  0.0000,  0.0000)
   8 Cu     8.004356    0.005858   12.249716    ( 0.0000,  0.0000,  0.0000)
   9 Cu     6.242712    1.856924   12.899068    ( 0.0000,  0.0000,  0.0000)
  10 Cu     0.397628    1.848012   12.887345    ( 0.0000,  0.0000,  0.0000)
  11 Cu     2.139281    0.007926   12.298338    ( 0.0000,  0.0000,  0.0000)
  12 Cu     4.434472    0.001797   13.511730    ( 0.0000,  0.0000,  0.0000)
  13 Cu     2.670659    1.865234   14.107382    ( 0.0000,  0.0000,  0.0000)
  14 Cu     8.520043    1.843001   14.097994    ( 0.0000,  0.0000,  0.0000)
  15 Cu    10.291080    0.002330   13.487457    ( 0.0000,  0.0000,  0.0000)
  16 Cu     0.910192    0.005291   14.675270    ( 0.0000,  0.0000,  0.0000)
  17 Cu    10.845913    1.856008   15.243614    ( 0.0000,  0.0000,  0.0000)
  18 Cu     4.989237    1.848224   15.250625    ( 0.0000,  0.0000,  0.0000)
  19 Cu     6.764327   -0.004652   14.665196    ( 0.0000,  0.0000,  0.0000)
  20 Cu     9.072694    0.006414   15.846140    ( 0.0000,  0.0000,  0.0000)
  21 Cu     7.287478    1.847305   16.441633    ( 0.0000,  0.0000,  0.0000)
  22 Cu     1.441127    1.852758   16.450666    ( 0.0000,  0.0000,  0.0000)
  23 Cu     3.207175   -0.003878   15.851399    ( 0.0000,  0.0000,  0.0000)
  24 Cu     5.523904    0.003144   17.015571    ( 0.0000,  0.0000,  0.0000)
  25 Cu     3.738368    1.843958   17.611196    ( 0.0000,  0.0000,  0.0000)
  26 Cu     9.604049    1.854356   17.605831    ( 0.0000,  0.0000,  0.0000)
  27 Cu    11.370172   -0.002313   17.006590    ( 0.0000,  0.0000,  0.0000)
  28 Cu     1.965362   -0.005539   18.213773    ( 0.0000,  0.0000,  0.0000)
  29 Cu     0.197359    1.845061   18.782351    ( 0.0000,  0.0000,  0.0000)
  30 Cu     6.046964    1.855133   18.792212    ( 0.0000,  0.0000,  0.0000)
  31 Cu     7.821928    0.002183   18.206753    ( 0.0000,  0.0000,  0.0000)
  32 Cu    10.140633   -0.014888   19.349998    ( 0.0000,  0.0000,  0.0000)
  33 Cu     8.376972    1.848655   19.945990    ( 0.0000,  0.0000,  0.0000)
  34 Cu     2.520532    1.848021   19.970547    ( 0.0000,  0.0000,  0.0000)
  35 Cu     4.291333    0.007488   19.359443    ( 0.0000,  0.0000,  0.0000)
  36 Cu     6.568700   -0.006641   20.558350    ( 0.0000,  0.0000,  0.0000)
  37 Cu     4.806877    1.844614   21.208452    ( 0.0000,  0.0000,  0.0000)
  38 Cu    10.672290    1.842317   21.159519    ( 0.0000,  0.0000,  0.0000)
  39 Cu     0.710210    0.002553   20.570231    ( 0.0000,  0.0000,  0.0000)
  40 Cu     3.086524   -0.043423   21.708471    ( 0.0000,  0.0000,  0.0000)
  41 Cu     1.366316    1.829071   22.218411    ( 0.0000,  0.0000,  0.0000)
  42 Cu     7.124808    1.853294   22.235785    ( 0.0000,  0.0000,  0.0000)
  43 Cu     8.935129    0.036090   21.708942    ( 0.0000,  0.0000,  0.0000)
  44 Cu    11.287144    0.024119   22.971474    ( 0.0000,  0.0000,  0.0000)
  45 Cu     9.322905    1.851074   23.535083    ( 0.0000,  0.0000,  0.0000)
  46 Cu     3.584795    1.813599   23.523741    ( 0.0000,  0.0000,  0.0000)
  47 Cu     5.435335   -0.040860   22.993096    ( 0.0000,  0.0000,  0.0000)
  48 Cu     3.376229    3.737263    9.935622    ( 0.0000,  0.0000,  0.0000)
  49 Cu     1.523666    5.592188   10.465079    ( 0.0000,  0.0000,  0.0000)
  50 Cu     7.374686    5.527230   10.487163    ( 0.0000,  0.0000,  0.0000)
  51 Cu     9.340898    3.700487    9.924225    ( 0.0000,  0.0000,  0.0000)
  52 Cu    11.538450    3.698282   11.221577    ( 0.0000,  0.0000,  0.0000)
  53 Cu     9.728276    5.515454   11.749207    ( 0.0000,  0.0000,  0.0000)
  54 Cu     3.873723    5.594598   11.749824    ( 0.0000,  0.0000,  0.0000)
  55 Cu     5.593829    3.722157   11.239382    ( 0.0000,  0.0000,  0.0000)
  56 Cu     7.991076    3.708926   12.298339    ( 0.0000,  0.0000,  0.0000)
  57 Cu     6.249423    5.549012   12.887347    ( 0.0000,  0.0000,  0.0000)
  58 Cu     0.390917    5.557924   12.899068    ( 0.0000,  0.0000,  0.0000)
  59 Cu     2.152560    3.706858   12.249714    ( 0.0000,  0.0000,  0.0000)
  60 Cu     4.439285    3.703330   13.487459    ( 0.0000,  0.0000,  0.0000)
  61 Cu     2.668248    5.544001   14.097995    ( 0.0000,  0.0000,  0.0000)
  62 Cu     8.522454    5.566234   14.107381    ( 0.0000,  0.0000,  0.0000)
  63 Cu    10.286268    3.702797   13.511729    ( 0.0000,  0.0000,  0.0000)
  64 Cu     0.912532    3.696347   14.665196    ( 0.0000,  0.0000,  0.0000)
  65 Cu    10.841031    5.549225   15.250624    ( 0.0000,  0.0000,  0.0000)
  66 Cu     4.994119    5.557008   15.243615    ( 0.0000,  0.0000,  0.0000)
  67 Cu     6.761989    3.706290   14.675271    ( 0.0000,  0.0000,  0.0000)
  68 Cu     9.058970    3.697122   15.851398    ( 0.0000,  0.0000,  0.0000)
  69 Cu     7.292923    5.553758   16.450665    ( 0.0000,  0.0000,  0.0000)
  70 Cu     1.435683    5.548306   16.441632    ( 0.0000,  0.0000,  0.0000)
  71 Cu     3.220899    3.707414   15.846141    ( 0.0000,  0.0000,  0.0000)
  72 Cu     5.518377    3.698686   17.006591    ( 0.0000,  0.0000,  0.0000)
  73 Cu     3.752254    5.555356   17.605832    ( 0.0000,  0.0000,  0.0000)
  74 Cu     9.590162    5.544958   17.611196    ( 0.0000,  0.0000,  0.0000)
  75 Cu    11.375698    3.704145   17.015572    ( 0.0000,  0.0000,  0.0000)
  76 Cu     1.970135    3.703182   18.206754    ( 0.0000,  0.0000,  0.0000)
  77 Cu     0.195169    5.556135   18.792212    ( 0.0000,  0.0000,  0.0000)
  78 Cu     6.049151    5.546060   18.782349    ( 0.0000,  0.0000,  0.0000)
  79 Cu     7.817156    3.695459   18.213772    ( 0.0000,  0.0000,  0.0000)
  80 Cu    10.143127    3.708488   19.359443    ( 0.0000,  0.0000,  0.0000)
  81 Cu     8.372326    5.549021   19.970543    ( 0.0000,  0.0000,  0.0000)
  82 Cu     2.525178    5.549655   19.945990    ( 0.0000,  0.0000,  0.0000)
  83 Cu     4.288839    3.686111   19.349999    ( 0.0000,  0.0000,  0.0000)
  84 Cu     6.562006    3.703552   20.570229    ( 0.0000,  0.0000,  0.0000)
  85 Cu     4.820495    5.543317   21.159517    ( 0.0000,  0.0000,  0.0000)
  86 Cu    10.658674    5.545614   21.208456    ( 0.0000,  0.0000,  0.0000)
  87 Cu     0.716904    3.694359   20.558351    ( 0.0000,  0.0000,  0.0000)
  88 Cu     3.083335    3.737089   21.708946    ( 0.0000,  0.0000,  0.0000)
  89 Cu     1.273017    5.554294   22.235784    ( 0.0000,  0.0000,  0.0000)
  90 Cu     7.218110    5.530071   22.218412    ( 0.0000,  0.0000,  0.0000)
  91 Cu     8.938318    3.657577   21.708468    ( 0.0000,  0.0000,  0.0000)
  92 Cu    11.287128    3.660140   22.993096    ( 0.0000,  0.0000,  0.0000)
  93 Cu     9.436589    5.514601   23.523740    ( 0.0000,  0.0000,  0.0000)
  94 Cu     3.471107    5.552075   23.535080    ( 0.0000,  0.0000,  0.0000)
  95 Cu     5.435350    3.725117   22.971474    ( 0.0000,  0.0000,  0.0000)
  96 Cl     9.660707    3.663747   24.988071    ( 0.0000,  0.0000,  0.0000)
  97 Cl     6.816001    5.804268   24.431679    ( 0.0000,  0.0000,  0.0000)
  98 Cl     4.119438    3.678318   24.937938    ( 0.0000,  0.0000,  0.0000)
  99 Cl     3.808911   -0.037255   24.988070    ( 0.0000,  0.0000,  0.0000)
 100 Cl     9.971229   -0.022679   24.937941    ( 0.0000,  0.0000,  0.0000)
 101 Cl    12.667791    2.103266   24.431678    ( 0.0000,  0.0000,  0.0000)
 102 Cl     5.994636    3.446902    9.025411    ( 0.0000,  0.0000,  0.0000)
 103 Cl     2.839980    1.872667    8.522136    ( 0.0000,  0.0000,  0.0000)
 104 Cl     3.150702    5.588620    8.472220    ( 0.0000,  0.0000,  0.0000)
 105 Cl     0.142843   -0.254098    9.025412    ( 0.0000,  0.0000,  0.0000)
 106 Cl    -2.701094    1.887622    8.472222    ( 0.0000,  0.0000,  0.0000)
 107 Cl    -3.011816    5.573667    8.522136    ( 0.0000,  0.0000,  0.0000)

Unit cell:
           periodic     x           y           z      points  spacing
  1. axis:    yes   11.703590    0.000000    0.000000    70     0.1672
  2. axis:    yes    0.000000    7.402000    0.000000    42     0.1762
  3. axis:    no     0.000000    0.000000   33.459128   192     0.1743

  Lengths:  11.703590   7.402000  33.459128
  Angles:   90.000000  90.000000  90.000000

Effective grid spacing dv^(1/3) = 0.1725

     iter     time        total  log10-change:
                         energy  eigst   dens
iter:   1 00:19:53 -7713.656567  -2.90
iter:   2 00:24:16 -7713.537073  -3.71  -2.76
iter:   3 00:28:39 -7713.519416c -4.63  -3.06
iter:   4 00:33:02 -7713.555715c -4.31  -3.09
iter:   5 00:37:19 -7713.501006c -4.07  -2.98
iter:   6 00:41:43 -7713.494399c -4.77  -3.53
iter:   7 00:46:06 -7713.494091c -5.58  -3.67
iter:   8 00:50:31 -7713.494176c -5.78  -3.78
iter:   9 00:54:54 -7713.493924c -5.86  -3.94
iter:  10 00:59:18 -7713.493818c -6.95  -4.11c
iter:  11 01:03:26 -7713.493625c -6.54  -4.18c
iter:  12 01:07:50 -7713.493476c -6.68  -4.18c
iter:  13 01:12:14 -7713.493497c -5.89  -4.28c
iter:  14 01:16:38 -7713.493394c -7.25  -4.53c
iter:  15 01:21:02 -7713.493387c -7.52c -4.63c

Converged after 15 iterations.

Dipole moment: (-5.840888, 17.575630, -0.001028) |e|*Ang

Energy contributions relative to reference atoms: (reference = -4472718.769496)

Kinetic:       +784.914231
Potential:     -855.816944
External:        +0.000000
XC:            -7640.733377
Entropy (-ST):   -0.972320
Local:           -1.371137
--------------------------
Free energy:   -7713.979547
Extrapolated:  -7713.493387

Showing only first 2 kpts
 Kpt  Band  Eigenvalues  Occupancy
  0   568      0.22554    0.95425
  0   569      0.29543    0.62412
  0   570      0.32124    0.51900
  0   571      0.43280    0.20602

  1   568     -0.18763    1.96542
  1   569      0.02326    1.74676
  1   570      0.07142    1.61989
  1   571      0.12914    1.41050


Fermi level: 0.21638

No gap

Forces in eV/Ang:
  0 Cu   -0.04491    0.07375    0.03649
  1 Cu   -0.01684    0.08043    0.08572
  2 Cu   -0.03642   -0.05058   -0.01213
  3 Cu   -0.02360   -0.03499   -0.01399
  4 Cu   -0.00102    0.01286    0.07585
  5 Cu    0.00138   -0.02383   -0.02596
  6 Cu    0.00931    0.03791   -0.01572
  7 Cu   -0.06460    0.00754    0.03667
  8 Cu   -0.00554    0.02887   -0.01988
  9 Cu   -0.02462   -0.00985   -0.00024
 10 Cu   -0.03507    0.01139    0.01849
 11 Cu   -0.00788   -0.01932    0.04098
 12 Cu   -0.00402    0.01064   -0.01064
 13 Cu   -0.02049   -0.00799   -0.02553
 14 Cu   -0.01342    0.01014   -0.01285
 15 Cu   -0.02029    0.00036   -0.00456
 16 Cu   -0.01296   -0.00377   -0.01887
 17 Cu   -0.01991   -0.00850   -0.01061
 18 Cu   -0.00895    0.00779    0.00194
 19 Cu   -0.00137    0.01127    0.01328
 20 Cu   -0.01428   -0.01213    0.00366
 21 Cu    0.01138    0.00915   -0.00092
 22 Cu   -0.01755   -0.00656    0.00025
 23 Cu    0.00987    0.00992   -0.01464
 24 Cu   -0.01171   -0.00918    0.00129
 25 Cu    0.01479    0.01221   -0.00324
 26 Cu   -0.00965   -0.01000    0.01540
 27 Cu    0.01730    0.00641   -0.00003
 28 Cu    0.01966    0.00857    0.01087
 29 Cu    0.01376    0.00395    0.01748
 30 Cu    0.00148   -0.01131   -0.01304
 31 Cu    0.00919   -0.00792   -0.00149
 32 Cu    0.02046    0.00840    0.02595
 33 Cu    0.00460   -0.01064    0.00959
 34 Cu    0.01976   -0.00028    0.00238
 35 Cu    0.01340   -0.01055    0.01290
 36 Cu    0.02407    0.01037    0.00168
 37 Cu    0.00653   -0.02887    0.01906
 38 Cu    0.00704    0.01939   -0.04100
 39 Cu    0.03434   -0.01227   -0.01754
 40 Cu   -0.00268    0.02403    0.02471
 41 Cu    0.00166   -0.01332   -0.07630
 42 Cu    0.06590   -0.00773   -0.03465
 43 Cu   -0.01003   -0.03781    0.01566
 44 Cu    0.02079   -0.08005   -0.08657
 45 Cu    0.04212   -0.07367   -0.03719
 46 Cu    0.02082    0.03473    0.01294
 47 Cu    0.04001    0.05021    0.01130
 48 Cu   -0.02360   -0.03500   -0.01400
 49 Cu   -0.03642   -0.05058   -0.01213
 50 Cu   -0.01684    0.08043    0.08573
 51 Cu   -0.04492    0.07376    0.03649
 52 Cu   -0.06458    0.00754    0.03667
 53 Cu    0.00931    0.03791   -0.01571
 54 Cu    0.00138   -0.02383   -0.02596
 55 Cu   -0.00102    0.01286    0.07587
 56 Cu   -0.00788   -0.01932    0.04097
 57 Cu   -0.03507    0.01139    0.01849
 58 Cu   -0.02462   -0.00985   -0.00024
 59 Cu   -0.00553    0.02887   -0.01987
 60 Cu   -0.02029    0.00036   -0.00457
 61 Cu   -0.01342    0.01014   -0.01285
 62 Cu   -0.02049   -0.00800   -0.02553
 63 Cu   -0.00402    0.01064   -0.01064
 64 Cu   -0.00138    0.01127    0.01327
 65 Cu   -0.00895    0.00779    0.00194
 66 Cu   -0.01991   -0.00850   -0.01061
 67 Cu   -0.01297   -0.00377   -0.01887
 68 Cu    0.00988    0.00992   -0.01463
 69 Cu   -0.01755   -0.00656    0.00025
 70 Cu    0.01138    0.00915   -0.00092
 71 Cu   -0.01428   -0.01213    0.00366
 72 Cu    0.01730    0.00641   -0.00003
 73 Cu   -0.00966   -0.01001    0.01539
 74 Cu    0.01479    0.01221   -0.00324
 75 Cu   -0.01171   -0.00919    0.00129
 76 Cu    0.00918   -0.00791   -0.00149
 77 Cu    0.00148   -0.01132   -0.01303
 78 Cu    0.01378    0.00396    0.01748
 79 Cu    0.01967    0.00857    0.01087
 80 Cu    0.01341   -0.01055    0.01291
 81 Cu    0.01976   -0.00028    0.00240
 82 Cu    0.00460   -0.01064    0.00959
 83 Cu    0.02045    0.00840    0.02595
 84 Cu    0.03434   -0.01226   -0.01753
 85 Cu    0.00704    0.01940   -0.04100
 86 Cu    0.00651   -0.02886    0.01904
 87 Cu    0.02407    0.01037    0.00167
 88 Cu   -0.01004   -0.03780    0.01565
 89 Cu    0.06588   -0.00773   -0.03465
 90 Cu    0.00167   -0.01332   -0.07633
 91 Cu   -0.00268    0.02403    0.02472
 92 Cu    0.04001    0.05021    0.01130
 93 Cu    0.02083    0.03473    0.01295
 94 Cu    0.04214   -0.07367   -0.03718
 95 Cu    0.02079   -0.08004   -0.08658
 96 Cl   -0.00088   -0.01417   -0.07472
 97 Cl    0.05457    0.13712    0.01283
 98 Cl    0.03514    0.03018   -0.04582
 99 Cl   -0.00088   -0.01417   -0.07471
100 Cl    0.03515    0.03017   -0.04582
101 Cl    0.05458    0.13712    0.01282
102 Cl   -0.05463   -0.13653   -0.00989
103 Cl   -0.03627   -0.02970    0.04227
104 Cl    0.00061    0.01341    0.07159
105 Cl   -0.05464   -0.13653   -0.00989
106 Cl    0.00061    0.01340    0.07158
107 Cl   -0.03627   -0.02970    0.04227

System changes: positions 

Initializing position-dependent things.

Density initialized from wave functions
      .----------------------------.  
     /|                            |  
    / |                            |  
   /  |                            |  
  /   |                            |  
 *    |                            |  
 |    |                            |  
 |    |                            |  
 |    |                            |  
 |    |                            |  
 |    |        Cl              Cl  |  
 |    |                            |  
 |    |               Cl           |  
 |    |      CCl   Cu      Clu     |  
 |    |       Cu                   |  
 |   Cl Cu       Cu    Cu      Cu  |  
 |    | Cu Cu    Cu   Cu Cu    Cu  |  
 |    |    Cu             Cu   Cu  |  
 |   CCu   Cu       Cu    Cu Cu    |  
 |   Cu    Cu Cu    Cu Cu    Cu    |  
 |    |  Cu   Cu       Cu    Cu   Cu  
 |    | Cu    Cu       Cu    Cu    |  
 | Cu | Cu  CuCu Cu    Cu          |  
 |    |     Cu   Cu    Cu Cu    Cu |  
 |    |    Cu    Cu Cu    Cu    Cu |  
 |    Cu   Cu  Cu   Cu    Cu       |  
 |    Cu       Cu   Cu       Cu    |  
 |    |  Cu   Cu    Cu Cu    Cu    |  
 | Cu |  Cu   Cu       Cu    Cu    |  
 | Cu |  Cu Cu    Cu   Cu Cu       |  
 |    Cl    Cu   Cu       Cu    Cu |  
 |    Cu    Cu       Cu    Cu      |  
 |    Cu     Cl      Cu   Cl Cu    |  
 |    |           Cl               |  
 |    |  CCu            Cul        |  
 |    |                            |  
 |    |                            |  
 |    |                            |  
 |    |                            |  
 |    |                            |  
 |    |                            |  
 |    .----------------------------.  
 |   /                            /   
 |  /                            /    
 | /                            /     
 |/                            /      
 *----------------------------*       

Positions:
   0 Cu     3.479333    0.018725    9.934917    ( 0.0000,  0.0000,  0.0000)
   1 Cu     1.512562    1.848046   10.515745    ( 0.0000,  0.0000,  0.0000)
   2 Cu     7.364117    1.877852   10.459700    ( 0.0000,  0.0000,  0.0000)
   3 Cu     9.223383    0.029768    9.932054    ( 0.0000,  0.0000,  0.0000)
   4 Cu    11.445971    0.022280   11.246496    ( 0.0000,  0.0000,  0.0000)
   5 Cu     9.727593    1.886818   11.741527    ( 0.0000,  0.0000,  0.0000)
   6 Cu     3.883028    1.825159   11.743930    ( 0.0000,  0.0000,  0.0000)
   7 Cu     5.667374   -0.000899   11.233325    ( 0.0000,  0.0000,  0.0000)
   8 Cu     8.003232    0.013090   12.242568    ( 0.0000,  0.0000,  0.0000)
   9 Cu     6.234604    1.851633   12.898764    ( 0.0000,  0.0000,  0.0000)
  10 Cu     0.388370    1.854928   12.892084    ( 0.0000,  0.0000,  0.0000)
  11 Cu     2.137773    0.001837   12.313343    ( 0.0000,  0.0000,  0.0000)
  12 Cu     4.434902    0.005406   13.507481    ( 0.0000,  0.0000,  0.0000)
  13 Cu     2.665216    1.861715   14.099483    ( 0.0000,  0.0000,  0.0000)
  14 Cu     8.515970    1.847083   14.094997    ( 0.0000,  0.0000,  0.0000)
  15 Cu    10.284349    0.001834   13.489883    ( 0.0000,  0.0000,  0.0000)
  16 Cu     0.906884    0.003648   14.668799    ( 0.0000,  0.0000,  0.0000)
  17 Cu    10.840180    1.853509   15.238963    ( 0.0000,  0.0000,  0.0000)
  18 Cu     4.986579    1.850305   15.250038    ( 0.0000,  0.0000,  0.0000)
  19 Cu     6.763983   -0.000878   14.668666    ( 0.0000,  0.0000,  0.0000)
  20 Cu     9.067785    0.003116   15.846382    ( 0.0000,  0.0000,  0.0000)
  21 Cu     7.291461    1.849483   16.441244    ( 0.0000,  0.0000,  0.0000)
  22 Cu     1.434631    1.851714   16.450789    ( 0.0000,  0.0000,  0.0000)
  23 Cu     3.211816   -0.001806   15.846336    ( 0.0000,  0.0000,  0.0000)
  24 Cu     5.519894    0.000989   17.016218    ( 0.0000,  0.0000,  0.0000)
  25 Cu     3.743513    1.847318   17.611036    ( 0.0000,  0.0000,  0.0000)
  26 Cu     9.599369    1.852235   17.611144    ( 0.0000,  0.0000,  0.0000)
  27 Cu    11.376574   -0.001359   17.006628    ( 0.0000,  0.0000,  0.0000)
  28 Cu     1.970867   -0.003141   18.218580    ( 0.0000,  0.0000,  0.0000)
  29 Cu     0.201063    1.846754   18.788614    ( 0.0000,  0.0000,  0.0000)
  30 Cu     6.047509    1.851356   18.788928    ( 0.0000,  0.0000,  0.0000)
  31 Cu     7.824539    0.000182   18.207592    ( 0.0000,  0.0000,  0.0000)
  32 Cu    10.146133   -0.011271   19.358189    ( 0.0000,  0.0000,  0.0000)
  33 Cu     8.376508    1.845070   19.949733    ( 0.0000,  0.0000,  0.0000)
  34 Cu     2.526974    1.848498   19.967762    ( 0.0000,  0.0000,  0.0000)
  35 Cu     4.295501    0.003323   19.362672    ( 0.0000,  0.0000,  0.0000)
  36 Cu     6.576657   -0.001370   20.559125    ( 0.0000,  0.0000,  0.0000)
  37 Cu     4.808088    1.837409   21.215121    ( 0.0000,  0.0000,  0.0000)
  38 Cu    10.673995    1.848378   21.144496    ( 0.0000,  0.0000,  0.0000)
  39 Cu     0.719329   -0.004419   20.565800    ( 0.0000,  0.0000,  0.0000)
  40 Cu     3.083685   -0.036298   21.716457    ( 0.0000,  0.0000,  0.0000)
  41 Cu     1.366331    1.827790   22.211068    ( 0.0000,  0.0000,  0.0000)
  42 Cu     7.144857    1.851394   22.224861    ( 0.0000,  0.0000,  0.0000)
  43 Cu     8.928117    0.025181   21.714295    ( 0.0000,  0.0000,  0.0000)
  44 Cu    11.298580    0.002472   22.942643    ( 0.0000,  0.0000,  0.0000)
  45 Cu     9.331714    1.831947   23.524202    ( 0.0000,  0.0000,  0.0000)
  46 Cu     3.588463    1.820025   23.526936    ( 0.0000,  0.0000,  0.0000)
  47 Cu     5.447806   -0.027688   22.998187    ( 0.0000,  0.0000,  0.0000)
  48 Cu     3.371588    3.730768    9.932054    ( 0.0000,  0.0000,  0.0000)
  49 Cu     1.512322    5.578851   10.459699    ( 0.0000,  0.0000,  0.0000)
  50 Cu     7.364357    5.549046   10.515745    ( 0.0000,  0.0000,  0.0000)
  51 Cu     9.331127    3.719726    9.934916    ( 0.0000,  0.0000,  0.0000)
  52 Cu    11.519170    3.700100   11.233325    ( 0.0000,  0.0000,  0.0000)
  53 Cu     9.734824    5.526158   11.743931    ( 0.0000,  0.0000,  0.0000)
  54 Cu     3.875798    5.587817   11.741527    ( 0.0000,  0.0000,  0.0000)
  55 Cu     5.594176    3.723281   11.246497    ( 0.0000,  0.0000,  0.0000)
  56 Cu     7.989569    3.702837   12.313343    ( 0.0000,  0.0000,  0.0000)
  57 Cu     6.240166    5.555928   12.892085    ( 0.0000,  0.0000,  0.0000)
  58 Cu     0.382809    5.552633   12.898764    ( 0.0000,  0.0000,  0.0000)
  59 Cu     2.151439    3.714090   12.242569    ( 0.0000,  0.0000,  0.0000)
  60 Cu     4.432552    3.702833   13.489882    ( 0.0000,  0.0000,  0.0000)
  61 Cu     2.664175    5.548082   14.094996    ( 0.0000,  0.0000,  0.0000)
  62 Cu     8.517012    5.562715   14.099482    ( 0.0000,  0.0000,  0.0000)
  63 Cu    10.286696    3.706406   13.507479    ( 0.0000,  0.0000,  0.0000)
  64 Cu     0.912188    3.700122   14.668666    ( 0.0000,  0.0000,  0.0000)
  65 Cu    10.838375    5.551304   15.250038    ( 0.0000,  0.0000,  0.0000)
  66 Cu     4.988385    5.554509   15.238964    ( 0.0000,  0.0000,  0.0000)
  67 Cu     6.758678    3.704648   14.668799    ( 0.0000,  0.0000,  0.0000)
  68 Cu     9.063612    3.699193   15.846336    ( 0.0000,  0.0000,  0.0000)
  69 Cu     7.286426    5.552714   16.450789    ( 0.0000,  0.0000,  0.0000)
  70 Cu     1.439665    5.550483   16.441246    ( 0.0000,  0.0000,  0.0000)
  71 Cu     3.215991    3.704115   15.846383    ( 0.0000,  0.0000,  0.0000)
  72 Cu     5.524778    3.699640   17.006627    ( 0.0000,  0.0000,  0.0000)
  73 Cu     3.747572    5.553235   17.611143    ( 0.0000,  0.0000,  0.0000)
  74 Cu     9.595308    5.548318   17.611036    ( 0.0000,  0.0000,  0.0000)
  75 Cu    11.371690    3.701990   17.016219    ( 0.0000,  0.0000,  0.0000)
  76 Cu     1.972743    3.701183   18.207593    ( 0.0000,  0.0000,  0.0000)
  77 Cu     0.195715    5.552356   18.788928    ( 0.0000,  0.0000,  0.0000)
  78 Cu     6.052859    5.547754   18.788612    ( 0.0000,  0.0000,  0.0000)
  79 Cu     7.822663    3.697859   18.218579    ( 0.0000,  0.0000,  0.0000)
  80 Cu    10.147296    3.704323   19.362673    ( 0.0000,  0.0000,  0.0000)
  81 Cu     8.378772    5.549498   19.967764    ( 0.0000,  0.0000,  0.0000)
  82 Cu     2.524714    5.546070   19.949735    ( 0.0000,  0.0000,  0.0000)
  83 Cu     4.294338    3.689729   19.358189    ( 0.0000,  0.0000,  0.0000)
  84 Cu     6.571123    3.696581   20.565800    ( 0.0000,  0.0000,  0.0000)
  85 Cu     4.822199    5.549377   21.144497    ( 0.0000,  0.0000,  0.0000)
  86 Cu    10.659877    5.538410   21.215119    ( 0.0000,  0.0000,  0.0000)
  87 Cu     0.724863    3.699630   20.559125    ( 0.0000,  0.0000,  0.0000)
  88 Cu     3.076321    3.726182   21.714294    ( 0.0000,  0.0000,  0.0000)
  89 Cu     1.293060    5.552395   22.224860    ( 0.0000,  0.0000,  0.0000)
  90 Cu     7.218127    5.528789   22.211068    ( 0.0000,  0.0000,  0.0000)
  91 Cu     8.935480    3.664704   21.716460    ( 0.0000,  0.0000,  0.0000)
  92 Cu    11.299600    3.673314   22.998187    ( 0.0000,  0.0000,  0.0000)
  93 Cu     9.440256    5.521026   23.526936    ( 0.0000,  0.0000,  0.0000)
  94 Cu     3.479922    5.532947   23.524206    ( 0.0000,  0.0000,  0.0000)
  95 Cu     5.446785    3.703472   22.942642    ( 0.0000,  0.0000,  0.0000)
  96 Cl     9.660120    3.662110   24.967378    ( 0.0000,  0.0000,  0.0000)
  97 Cl     6.833465    5.839971   24.423800    ( 0.0000,  0.0000,  0.0000)
  98 Cl     4.123636    3.685363   24.933737    ( 0.0000,  0.0000,  0.0000)
  99 Cl     3.808324   -0.038894   24.967377    ( 0.0000,  0.0000,  0.0000)
 100 Cl     9.975429   -0.015637   24.933739    ( 0.0000,  0.0000,  0.0000)
 101 Cl    12.685258    2.138968   24.423802    ( 0.0000,  0.0000,  0.0000)
 102 Cl     5.977259    3.411353    9.033673    ( 0.0000,  0.0000,  0.0000)
 103 Cl     2.835415    1.865754    8.525115    ( 0.0000,  0.0000,  0.0000)
 104 Cl     3.151140    5.589948    8.491735    ( 0.0000,  0.0000,  0.0000)
 105 Cl     0.125465   -0.289647    9.033672    ( 0.0000,  0.0000,  0.0000)
 106 Cl    -2.700655    1.888948    8.491737    ( 0.0000,  0.0000,  0.0000)
 107 Cl    -3.016381    5.566754    8.525115    ( 0.0000,  0.0000,  0.0000)

Unit cell:
           periodic     x           y           z      points  spacing
  1. axis:    yes   11.703590    0.000000    0.000000    70     0.1672
  2. axis:    yes    0.000000    7.402000    0.000000    42     0.1762
  3. axis:    no     0.000000    0.000000   33.459128   192     0.1743

  Lengths:  11.703590   7.402000  33.459128
  Angles:   90.000000  90.000000  90.000000

Effective grid spacing dv^(1/3) = 0.1725

     iter     time        total  log10-change:
                         energy  eigst   dens
iter:   1 01:27:57 -7713.970560  -2.46
iter:   2 01:32:18 -7713.662493  -3.28  -2.56
iter:   3 01:36:43 -7713.638452c -4.12  -2.88
iter:   4 01:41:09 -7713.594480c -4.39  -2.86
iter:   5 01:45:33 -7713.568103c -3.76  -2.96
iter:   6 01:49:57 -7713.558541c -4.60  -3.33
iter:   7 01:54:22 -7713.557559c -5.26  -3.50
iter:   8 01:58:44 -7713.557417c -5.55  -3.62
iter:   9 02:03:12 -7713.558128c -5.27  -3.73
iter:  10 02:07:39 -7713.557411c -6.05  -3.95
iter:  11 02:12:07 -7713.557270c -6.14  -4.00c
iter:  12 02:16:36 -7713.556498c -5.78  -3.93
iter:  13 02:21:04 -7713.556566c -6.00  -4.24c
iter:  14 02:25:32 -7713.556380c -6.66  -4.42c
iter:  15 02:29:59 -7713.556382c -7.00  -4.51c
iter:  16 02:34:20 -7713.556389c -7.02  -4.64c
iter:  17 02:38:47 -7713.556391c -7.28  -4.75c
iter:  18 02:43:14 -7713.556395c -7.76c -4.83c

Converged after 18 iterations.

Dipole moment: (-3.268668, 17.041636, -0.001566) |e|*Ang

Energy contributions relative to reference atoms: (reference = -4472718.769496)

Kinetic:       +786.374324
Potential:     -856.937579
External:        +0.000000
XC:            -7641.146931
Entropy (-ST):   -0.970627
Local:           -1.360895
--------------------------
Free energy:   -7714.041708
Extrapolated:  -7713.556395

Showing only first 2 kpts
 Kpt  Band  Eigenvalues  Occupancy
  0   568      0.23070    0.94538
  0   569      0.30343    0.60448
  0   570      0.32427    0.52036
  0   571      0.43377    0.21053

  1   568     -0.18069    1.96419
  1   569      0.02885    1.74185
  1   570      0.07109    1.63119
  1   571      0.13084    1.41747


Fermi level: 0.21976

No gap

Forces in eV/Ang:
  0 Cu   -0.06663    0.02815    0.03018
  1 Cu    0.02316    0.03302    0.01260
  2 Cu   -0.02937   -0.01981    0.00739
  3 Cu    0.00524   -0.04433   -0.00396
  4 Cu    0.02278    0.02676    0.05094
  5 Cu   -0.03527    0.01160   -0.00691
  6 Cu   -0.05567    0.01114    0.02488
  7 Cu   -0.01107    0.00517   -0.00673
  8 Cu   -0.02994    0.02769    0.03176
  9 Cu    0.00727    0.01578    0.01685
 10 Cu   -0.01427   -0.01502    0.02829
 11 Cu   -0.00715    0.00612   -0.04596
 12 Cu   -0.02999   -0.00306    0.01778
 13 Cu   -0.01121    0.02337    0.00146
 14 Cu   -0.00014   -0.01761   -0.00512
 15 Cu   -0.02081    0.00476   -0.00822
 16 Cu   -0.01452    0.00377    0.01432
 17 Cu   -0.01081    0.00161    0.01842
 18 Cu   -0.00231    0.00505    0.00972
 19 Cu   -0.01152   -0.00449    0.00385
 20 Cu    0.00647   -0.00147    0.00249
 21 Cu   -0.00737    0.00770    0.00228
 22 Cu    0.01650   -0.01084   -0.00372
 23 Cu   -0.02545    0.00919    0.00488
 24 Cu    0.00726   -0.00796    0.00002
 25 Cu   -0.00693    0.00131    0.00055
 26 Cu    0.02638   -0.00894   -0.00280
 27 Cu   -0.01590    0.01117    0.00617
 28 Cu    0.01202   -0.00083   -0.01702
 29 Cu    0.01292   -0.00394   -0.01168
 30 Cu    0.01003    0.00421   -0.00186
 31 Cu    0.00305   -0.00591   -0.00875
 32 Cu    0.01097   -0.02314    0.00041
 33 Cu    0.03067    0.00263   -0.01341
 34 Cu    0.02200   -0.00433    0.00738
 35 Cu   -0.00040    0.01753    0.00686
 36 Cu   -0.00667   -0.01405   -0.01607
 37 Cu    0.03109   -0.02774   -0.02862
 38 Cu    0.00390   -0.00546    0.04759
 39 Cu    0.01401    0.01280   -0.02794
 40 Cu    0.03834   -0.01342    0.00682
 41 Cu   -0.02498   -0.02611   -0.04909
 42 Cu    0.00591   -0.00512    0.00583
 43 Cu    0.05732   -0.01037   -0.02470
 44 Cu   -0.02113   -0.03337   -0.01381
 45 Cu    0.06671   -0.02962   -0.03392
 46 Cu   -0.00422    0.04430    0.00049
 47 Cu    0.02956    0.02111   -0.00877
 48 Cu    0.00524   -0.04433   -0.00397
 49 Cu   -0.02937   -0.01981    0.00739
 50 Cu    0.02315    0.03302    0.01261
 51 Cu   -0.06662    0.02815    0.03019
 52 Cu   -0.01107    0.00517   -0.00673
 53 Cu   -0.05568    0.01115    0.02488
 54 Cu   -0.03527    0.01161   -0.00690
 55 Cu    0.02279    0.02676    0.05094
 56 Cu   -0.00716    0.00612   -0.04596
 57 Cu   -0.01428   -0.01502    0.02829
 58 Cu    0.00727    0.01578    0.01685
 59 Cu   -0.02996    0.02769    0.03176
 60 Cu   -0.02080    0.00476   -0.00821
 61 Cu   -0.00013   -0.01761   -0.00511
 62 Cu   -0.01120    0.02338    0.00147
 63 Cu   -0.02998   -0.00306    0.01779
 64 Cu   -0.01152   -0.00449    0.00385
 65 Cu   -0.00231    0.00505    0.00973
 66 Cu   -0.01082    0.00161    0.01841
 67 Cu   -0.01452    0.00377    0.01432
 68 Cu   -0.02545    0.00920    0.00488
 69 Cu    0.01651   -0.01084   -0.00373
 70 Cu   -0.00736    0.00770    0.00227
 71 Cu    0.00646   -0.00146    0.00249
 72 Cu   -0.01590    0.01117    0.00618
 73 Cu    0.02638   -0.00894   -0.00279
 74 Cu   -0.00693    0.00131    0.00056
 75 Cu    0.00725   -0.00797    0.00002
 76 Cu    0.00306   -0.00591   -0.00875
 77 Cu    0.01003    0.00422   -0.00186
 78 Cu    0.01292   -0.00394   -0.01167
 79 Cu    0.01202   -0.00083   -0.01701
 80 Cu   -0.00041    0.01753    0.00686
 81 Cu    0.02198   -0.00433    0.00736
 82 Cu    0.03067    0.00263   -0.01343
 83 Cu    0.01097   -0.02314    0.00041
 84 Cu    0.01403    0.01280   -0.02794
 85 Cu    0.00391   -0.00546    0.04759
 86 Cu    0.03112   -0.02774   -0.02860
 87 Cu   -0.00668   -0.01405   -0.01607
 88 Cu    0.05732   -0.01038   -0.02469
 89 Cu    0.00591   -0.00512    0.00584
 90 Cu   -0.02499   -0.02611   -0.04910
 91 Cu    0.03834   -0.01344    0.00680
 92 Cu    0.02956    0.02110   -0.00877
 93 Cu   -0.00421    0.04431    0.00050
 94 Cu    0.06669   -0.02962   -0.03395
 95 Cu   -0.02112   -0.03338   -0.01382
 96 Cl   -0.00664   -0.03187   -0.03922
 97 Cl    0.03148    0.12287    0.01382
 98 Cl    0.10340    0.03455   -0.06203
 99 Cl   -0.00664   -0.03185   -0.03921
100 Cl    0.10340    0.03456   -0.06204
101 Cl    0.03149    0.12287    0.01380
102 Cl   -0.03149   -0.12289   -0.01594
103 Cl   -0.10355   -0.03476    0.05721
104 Cl    0.00715    0.03272    0.03584
105 Cl   -0.03149   -0.12289   -0.01594
106 Cl    0.00715    0.03272    0.03583
107 Cl   -0.10355   -0.03476    0.05721

System changes: positions 

Initializing position-dependent things.

Density initialized from wave functions
      .----------------------------.  
     /|                            |  
    / |                            |  
   /  |                            |  
  /   |                            |  
 *    |                            |  
 |    |                            |  
 |    |                            |  
 |    |                            |  
 |    |                            |  
 |    |        Cl              Cl  |  
 |    |                            |  
 |    |               Cl           |  
 |    |      CCl    Cu     Clu    Cu  
 |    |       Cu                   |  
 |   Cl Cu       Cu    Cu       Cu |  
 |    | Cu Cu    Cu      Cu    Cu  |  
 |    |    Cu             Cu   Cu  |  
 |   CCu   Cu       Cu    Cu       |  
 |   Cu    Cu Cu    Cu CuCu  Cu    |  
 |    |  Cu   Cu    Cu Cu    Cu    |  
 |    | Cu    Cu Cu    Cu    Cu    |  
 | Cu | Cu  Cu   Cu    Cu          |  
 |    |     Cu   Cu       Cu    Cu |  
 |    |    Cu    Cu       Cu    Cu |  
 |    Cu   Cu       Cu    Cu Cu    |  
 |    Cu   Cu  Cu   Cu       Cu    |  
 |    |  Cu   Cu       Cu    Cu    |  
 | Cu |  Cu   Cu  Cu   Cu    Cu    |  
 | Cu | Cu  Cu    Cu   Cu Cu       |  
 |    Cl    Cu   Cu       Cu    Cu |  
 |    |     Cu       Cu    Cu      |  
 |    Cu     ClCu   Cu    Cl Cu    |  
 |    |           Cl               |  
 |    |  CCu            Cul        |  
 |    |                            |  
 |    |                            |  
 |    |                            |  
 |    |                            |  
 |    |                            |  
 |    |                            |  
 |    .----------------------------.  
 |   /                            /   
 |  /                            /    
 | /                            /     
 |/                            /      
 *----------------------------*       

Positions:
   0 Cu     3.462286    0.037747    9.948530    ( 0.0000,  0.0000,  0.0000)
   1 Cu     1.505156    1.870277   10.542835    ( 0.0000,  0.0000,  0.0000)
   2 Cu     7.349761    1.864536   10.455586    ( 0.0000,  0.0000,  0.0000)
   3 Cu     9.221623    0.019201    9.928778    ( 0.0000,  0.0000,  0.0000)
   4 Cu    11.450290    0.026190   11.252826    ( 0.0000,  0.0000,  0.0000)
   5 Cu     9.724403    1.883289   11.733298    ( 0.0000,  0.0000,  0.0000)
   6 Cu     3.881262    1.835477   11.743336    ( 0.0000,  0.0000,  0.0000)
   7 Cu     5.649695    0.001221   11.242308    ( 0.0000,  0.0000,  0.0000)
   8 Cu     7.997703    0.022852   12.241235    ( 0.0000,  0.0000,  0.0000)
   9 Cu     6.228728    1.848659   12.901138    ( 0.0000,  0.0000,  0.0000)
  10 Cu     0.379035    1.859949   12.900195    ( 0.0000,  0.0000,  0.0000)
  11 Cu     2.135794   -0.002344   12.319621    ( 0.0000,  0.0000,  0.0000)
  12 Cu     4.431198    0.008098   13.506335    ( 0.0000,  0.0000,  0.0000)
  13 Cu     2.659252    1.862049   14.093075    ( 0.0000,  0.0000,  0.0000)
  14 Cu     8.512561    1.848111   14.092117    ( 0.0000,  0.0000,  0.0000)
  15 Cu    10.275084    0.001896   13.492448    ( 0.0000,  0.0000,  0.0000)
  16 Cu     0.902081    0.002649   14.665377    ( 0.0000,  0.0000,  0.0000)
  17 Cu    10.833805    1.851733   15.237383    ( 0.0000,  0.0000,  0.0000)
  18 Cu     4.984024    1.852716   15.250551    ( 0.0000,  0.0000,  0.0000)
  19 Cu     6.761861    0.001706   14.671901    ( 0.0000,  0.0000,  0.0000)
  20 Cu     9.064470    0.000324   15.846559    ( 0.0000,  0.0000,  0.0000)
  21 Cu     7.293837    1.852249   16.441239    ( 0.0000,  0.0000,  0.0000)
  22 Cu     1.431334    1.849552   16.450308    ( 0.0000,  0.0000,  0.0000)
  23 Cu     3.212352    0.000946   15.842612    ( 0.0000,  0.0000,  0.0000)
  24 Cu     5.517514   -0.001784   17.016886    ( 0.0000,  0.0000,  0.0000)
  25 Cu     3.746989    1.850154   17.611400    ( 0.0000,  0.0000,  0.0000)
  26 Cu     9.598900    1.849470   17.615424    ( 0.0000,  0.0000,  0.0000)
  27 Cu    11.379883    0.000760   17.007686    ( 0.0000,  0.0000,  0.0000)
  28 Cu     1.977172   -0.001382   18.220558    ( 0.0000,  0.0000,  0.0000)
  29 Cu     0.206010    1.847766   18.792398    ( 0.0000,  0.0000,  0.0000)
  30 Cu     6.049642    1.848730   18.786226    ( 0.0000,  0.0000,  0.0000)
  31 Cu     7.827120   -0.002243   18.207507    ( 0.0000,  0.0000,  0.0000)
  32 Cu    10.152140   -0.011495   19.365223    ( 0.0000,  0.0000,  0.0000)
  33 Cu     8.380190    1.842341   19.951077    ( 0.0000,  0.0000,  0.0000)
  34 Cu     2.536132    1.848469   19.964911    ( 0.0000,  0.0000,  0.0000)
  35 Cu     4.298951    0.002233   19.366134    ( 0.0000,  0.0000,  0.0000)
  36 Cu     6.582513    0.001781   20.557288    ( 0.0000,  0.0000,  0.0000)
  37 Cu     4.813770    1.827676   21.216452    ( 0.0000,  0.0000,  0.0000)
  38 Cu    10.675836    1.852617   21.138465    ( 0.0000,  0.0000,  0.0000)
  39 Cu     0.728547   -0.009744   20.558014    ( 0.0000,  0.0000,  0.0000)
  40 Cu     3.086556   -0.032638   21.724449    ( 0.0000,  0.0000,  0.0000)
  41 Cu     1.362041    1.823844   22.204803    ( 0.0000,  0.0000,  0.0000)
  42 Cu     7.162515    1.849203   22.216522    ( 0.0000,  0.0000,  0.0000)
  43 Cu     8.929643    0.014702   21.715028    ( 0.0000,  0.0000,  0.0000)
  44 Cu    11.307192   -0.019649   22.915154    ( 0.0000,  0.0000,  0.0000)
  45 Cu     9.347922    1.812822   23.509837    ( 0.0000,  0.0000,  0.0000)
  46 Cu     3.589516    1.830539   23.529312    ( 0.0000,  0.0000,  0.0000)
  47 Cu     5.463148   -0.014324   23.001818    ( 0.0000,  0.0000,  0.0000)
  48 Cu     3.369828    3.720200    9.928778    ( 0.0000,  0.0000,  0.0000)
  49 Cu     1.497967    5.565535   10.455585    ( 0.0000,  0.0000,  0.0000)
  50 Cu     7.356951    5.571276   10.542835    ( 0.0000,  0.0000,  0.0000)
  51 Cu     9.314078    3.738748    9.948527    ( 0.0000,  0.0000,  0.0000)
  52 Cu    11.501494    3.702221   11.242308    ( 0.0000,  0.0000,  0.0000)
  53 Cu     9.733058    5.536476   11.743337    ( 0.0000,  0.0000,  0.0000)
  54 Cu     3.872608    5.584288   11.733297    ( 0.0000,  0.0000,  0.0000)
  55 Cu     5.598495    3.727190   11.252826    ( 0.0000,  0.0000,  0.0000)
  56 Cu     7.987590    3.698656   12.319620    ( 0.0000,  0.0000,  0.0000)
  57 Cu     6.230831    5.560949   12.900195    ( 0.0000,  0.0000,  0.0000)
  58 Cu     0.376933    5.549660   12.901138    ( 0.0000,  0.0000,  0.0000)
  59 Cu     2.145912    3.723852   12.241238    ( 0.0000,  0.0000,  0.0000)
  60 Cu     4.423287    3.702896   13.492445    ( 0.0000,  0.0000,  0.0000)
  61 Cu     2.660766    5.549110   14.092118    ( 0.0000,  0.0000,  0.0000)
  62 Cu     8.511046    5.563049   14.093075    ( 0.0000,  0.0000,  0.0000)
  63 Cu    10.282992    3.709098   13.506334    ( 0.0000,  0.0000,  0.0000)
  64 Cu     0.910067    3.702707   14.671901    ( 0.0000,  0.0000,  0.0000)
  65 Cu    10.835820    5.553715   15.250551    ( 0.0000,  0.0000,  0.0000)
  66 Cu     4.982009    5.552732   15.237382    ( 0.0000,  0.0000,  0.0000)
  67 Cu     6.753873    3.703650   14.665377    ( 0.0000,  0.0000,  0.0000)
  68 Cu     9.064148    3.701946   15.842612    ( 0.0000,  0.0000,  0.0000)
  69 Cu     7.283128    5.550552   16.450310    ( 0.0000,  0.0000,  0.0000)
  70 Cu     1.442040    5.553249   16.441242    ( 0.0000,  0.0000,  0.0000)
  71 Cu     3.212675    3.701323   15.846559    ( 0.0000,  0.0000,  0.0000)
  72 Cu     5.528088    3.701760   17.007685    ( 0.0000,  0.0000,  0.0000)
  73 Cu     3.747103    5.550470   17.615423    ( 0.0000,  0.0000,  0.0000)
  74 Cu     9.598785    5.551154   17.611400    ( 0.0000,  0.0000,  0.0000)
  75 Cu    11.369311    3.699216   17.016886    ( 0.0000,  0.0000,  0.0000)
  76 Cu     1.975322    3.698759   18.207507    ( 0.0000,  0.0000,  0.0000)
  77 Cu     0.197848    5.549729   18.786227    ( 0.0000,  0.0000,  0.0000)
  78 Cu     6.057809    5.548767   18.792398    ( 0.0000,  0.0000,  0.0000)
  79 Cu     7.828969    3.699619   18.220558    ( 0.0000,  0.0000,  0.0000)
  80 Cu    10.150747    3.703234   19.366135    ( 0.0000,  0.0000,  0.0000)
  81 Cu     8.387931    5.549469   19.964916    ( 0.0000,  0.0000,  0.0000)
  82 Cu     2.528394    5.543341   19.951080    ( 0.0000,  0.0000,  0.0000)
  83 Cu     4.300344    3.689506   19.365222    ( 0.0000,  0.0000,  0.0000)
  84 Cu     6.580341    3.691257   20.558014    ( 0.0000,  0.0000,  0.0000)
  85 Cu     4.824040    5.553617   21.138467    ( 0.0000,  0.0000,  0.0000)
  86 Cu    10.665557    5.528678   21.216446    ( 0.0000,  0.0000,  0.0000)
  87 Cu     0.730719    3.702781   20.557287    ( 0.0000,  0.0000,  0.0000)
  88 Cu     3.077847    3.715704   21.715025    ( 0.0000,  0.0000,  0.0000)
  89 Cu     1.310715    5.550204   22.216522    ( 0.0000,  0.0000,  0.0000)
  90 Cu     7.213837    5.524843   22.204804    ( 0.0000,  0.0000,  0.0000)
  91 Cu     8.938352    3.668364   21.724454    ( 0.0000,  0.0000,  0.0000)
  92 Cu    11.314943    3.686679   23.001818    ( 0.0000,  0.0000,  0.0000)
  93 Cu     9.441309    5.531540   23.529312    ( 0.0000,  0.0000,  0.0000)
  94 Cu     3.496134    5.513820   23.509843    ( 0.0000,  0.0000,  0.0000)
  95 Cu     5.455397    3.681353   22.915152    ( 0.0000,  0.0000,  0.0000)
  96 Cl     9.658394    3.656883   24.944771    ( 0.0000,  0.0000,  0.0000)
  97 Cl     6.853555    5.886719   24.413670    ( 0.0000,  0.0000,  0.0000)
  98 Cl     4.140742    3.695794   24.924958    ( 0.0000,  0.0000,  0.0000)
  99 Cl     3.806598   -0.044121   24.944772    ( 0.0000,  0.0000,  0.0000)
 100 Cl     9.992537   -0.005207   24.924958    ( 0.0000,  0.0000,  0.0000)
 101 Cl    12.705351    2.185717   24.413674    ( 0.0000,  0.0000,  0.0000)
 102 Cl     5.957292    3.364716    9.043524    ( 0.0000,  0.0000,  0.0000)
 103 Cl     2.817967    1.855392    8.532022    ( 0.0000,  0.0000,  0.0000)
 104 Cl     3.152792    5.595017    8.512699    ( 0.0000,  0.0000,  0.0000)
 105 Cl     0.105497   -0.336283    9.043521    ( 0.0000,  0.0000,  0.0000)
 106 Cl    -2.699002    1.894016    8.512700    ( 0.0000,  0.0000,  0.0000)
 107 Cl    -3.033828    5.556392    8.532022    ( 0.0000,  0.0000,  0.0000)

Unit cell:
           periodic     x           y           z      points  spacing
  1. axis:    yes   11.703590    0.000000    0.000000    70     0.1672
  2. axis:    yes    0.000000    7.402000    0.000000    42     0.1762
  3. axis:    no     0.000000    0.000000   33.459128   192     0.1743

  Lengths:  11.703590   7.402000  33.459128
  Angles:   90.000000  90.000000  90.000000

Effective grid spacing dv^(1/3) = 0.1725

     iter     time        total  log10-change:
                         energy  eigst   dens
iter:   1 02:50:38 -7713.802145  -2.59
iter:   2 02:55:01 -7713.643229  -3.50  -2.70
iter:   3 02:59:16 -7713.619963c -4.57  -3.02
iter:   4 03:03:38 -7713.655587c -4.17  -3.06
iter:   5 03:08:02 -7713.611295c -4.23  -3.00
iter:   6 03:12:26 -7713.604405c -4.83  -3.44
iter:   7 03:16:49 -7713.604127c -5.30  -3.56
iter:   8 03:21:12 -7713.604277c -5.72  -3.68
iter:   9 03:25:35 -7713.604087c -5.59  -3.82
iter:  10 03:30:01 -7713.603951c -6.61  -4.01c
iter:  11 03:34:27 -7713.603634c -6.56  -4.07c
iter:  12 03:38:46 -7713.603564c -5.80  -4.13c
iter:  13 03:43:11 -7713.603322c -6.40  -4.15c
iter:  14 03:47:34 -7713.603258c -7.22  -4.57c
iter:  15 03:51:40 -7713.603273c -7.23  -4.64c
iter:  16 03:55:42 -7713.603304c -6.91  -4.76c
iter:  17 03:59:43 -7713.603286c -7.53c -4.91c

Converged after 17 iterations.

Dipole moment: (-0.585512, 16.090932, 0.001808) |e|*Ang

Energy contributions relative to reference atoms: (reference = -4472718.769496)

Kinetic:       +789.137550
Potential:     -859.101645
External:        +0.000000
XC:            -7641.812391
Entropy (-ST):   -0.969369
Local:           -1.342116
--------------------------
Free energy:   -7714.087971
Extrapolated:  -7713.603286

Showing only first 2 kpts
 Kpt  Band  Eigenvalues  Occupancy
  0   568      0.24094    0.93573
  0   569      0.31537    0.58926
  0   570      0.33215    0.52199
  0   571      0.43892    0.21654

  1   568     -0.16821    1.96269
  1   569      0.04021    1.73489
  1   570      0.07663    1.63942
  1   571      0.13643    1.42859


Fermi level: 0.22807

No gap

Forces in eV/Ang:
  0 Cu   -0.06567   -0.01993    0.02732
  1 Cu    0.03403   -0.00332   -0.03521
  2 Cu   -0.01057   -0.00983    0.02650
  3 Cu    0.02357   -0.02832    0.01440
  4 Cu    0.01260    0.03958    0.04626
  5 Cu   -0.04280    0.02173    0.01211
  6 Cu   -0.06944   -0.00101    0.06133
  7 Cu    0.01908    0.00117   -0.03047
  8 Cu   -0.03819    0.02247    0.06024
  9 Cu    0.01053    0.03899    0.02129
 10 Cu   -0.00765   -0.03324    0.01880
 11 Cu   -0.01522    0.02385   -0.07766
 12 Cu   -0.04397   -0.00893    0.03465
 13 Cu   -0.00439    0.03086    0.02599
 14 Cu    0.00433   -0.02010    0.00901
 15 Cu   -0.00188    0.01106   -0.02104
 16 Cu   -0.00904    0.00922    0.02724
 17 Cu   -0.00024    0.01215    0.03806
 18 Cu   -0.00130   -0.00241    0.01422
 19 Cu   -0.02084   -0.01266    0.00440
 20 Cu    0.01236    0.01001    0.00472
 21 Cu   -0.01613   -0.00045    0.00232
 22 Cu    0.03106   -0.00522   -0.01010
 23 Cu   -0.03832    0.00178    0.01705
 24 Cu    0.01585    0.00022   -0.00319
 25 Cu   -0.01334   -0.01042   -0.00416
 26 Cu    0.03912   -0.00163   -0.01713
 27 Cu   -0.03033    0.00580    0.00980
 28 Cu    0.00223   -0.01177   -0.03798
 29 Cu    0.00622   -0.00923   -0.02597
 30 Cu    0.01913    0.01231   -0.00484
 31 Cu    0.00213    0.00207   -0.01485
 32 Cu    0.00373   -0.03109   -0.02717
 33 Cu    0.04455    0.00836   -0.03000
 34 Cu    0.00337   -0.01059    0.02309
 35 Cu   -0.00520    0.02004   -0.01047
 36 Cu   -0.00961   -0.03828   -0.02303
 37 Cu    0.03807   -0.02287   -0.05675
 38 Cu    0.01233   -0.02351    0.07806
 39 Cu    0.00834    0.03288   -0.02012
 40 Cu    0.04748   -0.02405   -0.01223
 41 Cu   -0.01524   -0.03941   -0.04852
 42 Cu   -0.02483   -0.00070    0.02490
 43 Cu    0.07281    0.00223   -0.06272
 44 Cu   -0.03636    0.00278    0.03552
 45 Cu    0.06933    0.01886   -0.02973
 46 Cu   -0.01969    0.02838   -0.01670
 47 Cu    0.00625    0.01107   -0.02604
 48 Cu    0.02357   -0.02831    0.01440
 49 Cu   -0.01057   -0.00982    0.02650
 50 Cu    0.03403   -0.00332   -0.03521
 51 Cu   -0.06565   -0.01994    0.02734
 52 Cu    0.01907    0.00117   -0.03048
 53 Cu   -0.06945   -0.00101    0.06132
 54 Cu   -0.04280    0.02173    0.01212
 55 Cu    0.01260    0.03958    0.04627
 56 Cu   -0.01522    0.02386   -0.07765
 57 Cu   -0.00765   -0.03324    0.01880
 58 Cu    0.01053    0.03899    0.02128
 59 Cu   -0.03822    0.02247    0.06022
 60 Cu   -0.00186    0.01105   -0.02103
 61 Cu    0.00433   -0.02009    0.00902
 62 Cu   -0.00439    0.03086    0.02599
 63 Cu   -0.04396   -0.00893    0.03466
 64 Cu   -0.02084   -0.01267    0.00440
 65 Cu   -0.00131   -0.00240    0.01422
 66 Cu   -0.00024    0.01215    0.03806
 67 Cu   -0.00902    0.00921    0.02724
 68 Cu   -0.03832    0.00178    0.01704
 69 Cu    0.03106   -0.00522   -0.01011
 70 Cu   -0.01613   -0.00045    0.00230
 71 Cu    0.01236    0.01002    0.00472
 72 Cu   -0.03032    0.00580    0.00981
 73 Cu    0.03914   -0.00163   -0.01712
 74 Cu   -0.01334   -0.01042   -0.00416
 75 Cu    0.01584    0.00022   -0.00319
 76 Cu    0.00215    0.00206   -0.01486
 77 Cu    0.01912    0.01232   -0.00484
 78 Cu    0.00620   -0.00923   -0.02597
 79 Cu    0.00222   -0.01177   -0.03798
 80 Cu   -0.00520    0.02004   -0.01047
 81 Cu    0.00334   -0.01059    0.02306
 82 Cu    0.04455    0.00836   -0.03001
 83 Cu    0.00373   -0.03109   -0.02717
 84 Cu    0.00835    0.03288   -0.02012
 85 Cu    0.01233   -0.02351    0.07805
 86 Cu    0.03812   -0.02287   -0.05672
 87 Cu   -0.00963   -0.03828   -0.02303
 88 Cu    0.07282    0.00222   -0.06270
 89 Cu   -0.02480   -0.00071    0.02491
 90 Cu   -0.01525   -0.03941   -0.04854
 91 Cu    0.04747   -0.02407   -0.01226
 92 Cu    0.00625    0.01106   -0.02604
 93 Cu   -0.01968    0.02838   -0.01669
 94 Cu    0.06930    0.01887   -0.02978
 95 Cu   -0.03636    0.00277    0.03553
 96 Cl   -0.02165   -0.02210   -0.00689
 97 Cl    0.02669    0.11425    0.05615
 98 Cl    0.15221    0.01736   -0.04142
 99 Cl   -0.02165   -0.02208   -0.00689
100 Cl    0.15220    0.01738   -0.04143
101 Cl    0.02670    0.11425    0.05612
102 Cl   -0.02739   -0.11463   -0.05149
103 Cl   -0.15136   -0.01770    0.04403
104 Cl    0.02252    0.02347    0.00986
105 Cl   -0.02740   -0.11463   -0.05147
106 Cl    0.02251    0.02347    0.00985
107 Cl   -0.15137   -0.01770    0.04403

System changes: positions 

Initializing position-dependent things.

Density initialized from wave functions
      .----------------------------.  
     /|                            |  
    / |                            |  
   /  |                            |  
  /   |                            |  
 *    |                            |  
 |    |                            |  
 |    |                            |  
 |    |                            |  
 |    |                            |  
 |    |                            |  
 |    |        Cl                  |  
 |    |               Cl           |  
 |    |       Cl           Clu    Cu  
 |    |      Cuu            Cu     |  
 |   Cl Cu             Cu Cl    Cu |  
 |    | Cu Cu    Cu      Cu    Cu  |  
 |    |    Cu    Cu       Cu   Cu  |  
 |   CCu   Cu  Cu   Cu    Cu       |  
 |   Cu       Cu    Cu   Cu  Cu    |  
 |    |  Cu   Cu    Cu Cu    Cu    |  
 |    | Cu    Cu Cu    Cu    Cu    |  
 | Cu | Cu       Cu    Cu   Cu     |  
 |    | Cu  Cu   Cu       Cu    Cu |  
 |    Cu   Cu    Cu       Cu    Cu |  
 |    Cu   Cu       Cu    Cu Cu    |  
 |    Cu   Cu  Cu   Cu       Cu    |  
 |    |  Cu   Cu       Cu    Cu    |  
 |    |  Cu   Cu  Cu   Cu    Cu    |  
 | Cu | Cu  Cu    Cu   Cu Cu Cu    |  
 |    Cl    Cu   Cu       Cu    Cu |  
 |    |     Cu       Cu   Cu       |  
 |    Cu     ClCu   Cu    Cl Cu    |  
 |    |           Cl               |  
 |    |  Cu              Cl        |  
 |    |                            |  
 |    |                            |  
 |    |                            |  
 |    |                            |  
 |    |                            |  
 |    |                            |  
 |    .----------------------------.  
 |   /                            /   
 |  /                            /    
 | /                            /     
 |/                            /      
 *----------------------------*       

Positions:
   0 Cu     3.396570    0.111074   10.001007    ( 0.0000,  0.0000,  0.0000)
   1 Cu     1.476605    1.955975   10.647266    ( 0.0000,  0.0000,  0.0000)
   2 Cu     7.294422    1.813205   10.439728    ( 0.0000,  0.0000,  0.0000)
   3 Cu     9.214839   -0.021537    9.916152    ( 0.0000,  0.0000,  0.0000)
   4 Cu    11.466940    0.041262   11.277225    ( 0.0000,  0.0000,  0.0000)
   5 Cu     9.712107    1.869685   11.701575    ( 0.0000,  0.0000,  0.0000)
   6 Cu     3.874451    1.875252   11.741044    ( 0.0000,  0.0000,  0.0000)
   7 Cu     5.581546    0.009395   11.276937    ( 0.0000,  0.0000,  0.0000)
   8 Cu     7.976390    0.060484   12.236098    ( 0.0000,  0.0000,  0.0000)
   9 Cu     6.206078    1.837197   12.910288    ( 0.0000,  0.0000,  0.0000)
  10 Cu     0.343050    1.879304   12.931460    ( 0.0000,  0.0000,  0.0000)
  11 Cu     2.128166   -0.018461   12.343821    ( 0.0000,  0.0000,  0.0000)
  12 Cu     4.416921    0.018474   13.501918    ( 0.0000,  0.0000,  0.0000)
  13 Cu     2.636258    1.863338   14.068374    ( 0.0000,  0.0000,  0.0000)
  14 Cu     8.499418    1.852073   14.081019    ( 0.0000,  0.0000,  0.0000)
  15 Cu    10.239367    0.002137   13.502335    ( 0.0000,  0.0000,  0.0000)
  16 Cu     0.883567   -0.001202   14.652187    ( 0.0000,  0.0000,  0.0000)
  17 Cu    10.809230    1.844884   15.231289    ( 0.0000,  0.0000,  0.0000)
  18 Cu     4.974172    1.862009   15.252526    ( 0.0000,  0.0000,  0.0000)
  19 Cu     6.753682    0.011667   14.684370    ( 0.0000,  0.0000,  0.0000)
  20 Cu     9.051688   -0.010440   15.847242    ( 0.0000,  0.0000,  0.0000)
  21 Cu     7.302996    1.862912   16.441218    ( 0.0000,  0.0000,  0.0000)
  22 Cu     1.418621    1.841217   16.448457    ( 0.0000,  0.0000,  0.0000)
  23 Cu     3.214417    0.011559   15.828255    ( 0.0000,  0.0000,  0.0000)
  24 Cu     5.508338   -0.012477   17.019461    ( 0.0000,  0.0000,  0.0000)
  25 Cu     3.760390    1.861087   17.612802    ( 0.0000,  0.0000,  0.0000)
  26 Cu     9.597094    1.838812   17.631925    ( 0.0000,  0.0000,  0.0000)
  27 Cu    11.392641    0.008929   17.011766    ( 0.0000,  0.0000,  0.0000)
  28 Cu     2.001475    0.005398   18.228184    ( 0.0000,  0.0000,  0.0000)
  29 Cu     0.225084    1.851665   18.806985    ( 0.0000,  0.0000,  0.0000)
  30 Cu     6.057865    1.838607   18.775812    ( 0.0000,  0.0000,  0.0000)
  31 Cu     7.837067   -0.011591   18.207177    ( 0.0000,  0.0000,  0.0000)
  32 Cu    10.175296   -0.012361   19.392338    ( 0.0000,  0.0000,  0.0000)
  33 Cu     8.394380    1.831820   19.956257    ( 0.0000,  0.0000,  0.0000)
  34 Cu     2.571432    1.848355   19.953921    ( 0.0000,  0.0000,  0.0000)
  35 Cu     4.312252   -0.001969   19.379478    ( 0.0000,  0.0000,  0.0000)
  36 Cu     6.605088    0.013927   20.550205    ( 0.0000,  0.0000,  0.0000)
  37 Cu     4.835671    1.790158   21.221582    ( 0.0000,  0.0000,  0.0000)
  38 Cu    10.682929    1.868957   21.115215    ( 0.0000,  0.0000,  0.0000)
  39 Cu     0.764082   -0.030270   20.527997    ( 0.0000,  0.0000,  0.0000)
  40 Cu     3.097625   -0.018529   21.755258    ( 0.0000,  0.0000,  0.0000)
  41 Cu     1.345500    1.808634   22.180653    ( 0.0000,  0.0000,  0.0000)
  42 Cu     7.230587    1.840756   22.184374    ( 0.0000,  0.0000,  0.0000)
  43 Cu     8.935527   -0.025694   21.717855    ( 0.0000,  0.0000,  0.0000)
  44 Cu    11.340389   -0.104924   22.809185    ( 0.0000,  0.0000,  0.0000)
  45 Cu     9.410405    1.739097   23.454462    ( 0.0000,  0.0000,  0.0000)
  46 Cu     3.593575    1.871069   23.538469    ( 0.0000,  0.0000,  0.0000)
  47 Cu     5.522292    0.037195   23.015812    ( 0.0000,  0.0000,  0.0000)
  48 Cu     3.363044    3.679459    9.916149    ( 0.0000,  0.0000,  0.0000)
  49 Cu     1.442629    5.514201   10.439726    ( 0.0000,  0.0000,  0.0000)
  50 Cu     7.328399    5.656971   10.647267    ( 0.0000,  0.0000,  0.0000)
  51 Cu     9.248354    3.812077   10.001000    ( 0.0000,  0.0000,  0.0000)
  52 Cu    11.433352    3.710393   11.276937    ( 0.0000,  0.0000,  0.0000)
  53 Cu     9.726249    5.576253   11.741050    ( 0.0000,  0.0000,  0.0000)
  54 Cu     3.860312    5.570683   11.701570    ( 0.0000,  0.0000,  0.0000)
  55 Cu     5.615144    3.742261   11.277226    ( 0.0000,  0.0000,  0.0000)
  56 Cu     7.979961    3.682540   12.343818    ( 0.0000,  0.0000,  0.0000)
  57 Cu     6.194845    5.580304   12.931457    ( 0.0000,  0.0000,  0.0000)
  58 Cu     0.354282    5.538198   12.910290    ( 0.0000,  0.0000,  0.0000)
  59 Cu     2.124604    3.761483   12.236108    ( 0.0000,  0.0000,  0.0000)
  60 Cu     4.387570    3.703137   13.502328    ( 0.0000,  0.0000,  0.0000)
  61 Cu     2.647624    5.553071   14.081020    ( 0.0000,  0.0000,  0.0000)
  62 Cu     8.488052    5.564335   14.068378    ( 0.0000,  0.0000,  0.0000)
  63 Cu    10.268714    3.719474   13.501916    ( 0.0000,  0.0000,  0.0000)
  64 Cu     0.901888    3.712671   14.684370    ( 0.0000,  0.0000,  0.0000)
[...]
  19 Cu     6.710159    0.002366   14.690824    ( 0.0000,  0.0000,  0.0000)
  20 Cu     9.050317    0.005693   15.850489    ( 0.0000,  0.0000,  0.0000)
  21 Cu     7.289020    1.848255   16.436813    ( 0.0000,  0.0000,  0.0000)
  22 Cu     1.429596    1.851441   16.448185    ( 0.0000,  0.0000,  0.0000)
  23 Cu     3.194231    0.001159   15.849366    ( 0.0000,  0.0000,  0.0000)
  24 Cu     5.523217    0.001900   17.022386    ( 0.0000,  0.0000,  0.0000)
  25 Cu     3.761886    1.844501   17.608414    ( 0.0000,  0.0000,  0.0000)
  26 Cu     9.617897    1.849133   17.609678    ( 0.0000,  0.0000,  0.0000)
  27 Cu    11.382590   -0.001199   17.011279    ( 0.0000,  0.0000,  0.0000)
  28 Cu     2.006721   -0.004838   18.195398    ( 0.0000,  0.0000,  0.0000)
  29 Cu     0.241724    1.843984   18.771206    ( 0.0000,  0.0000,  0.0000)
  30 Cu     6.101755    1.847856   18.768083    ( 0.0000,  0.0000,  0.0000)
  31 Cu     7.861101   -0.008550   18.194661    ( 0.0000,  0.0000,  0.0000)
  32 Cu    10.209706   -0.019863   19.336011    ( 0.0000,  0.0000,  0.0000)
  33 Cu     8.450674    1.839694   19.931896    ( 0.0000,  0.0000,  0.0000)
  34 Cu     2.587473    1.834627   19.959207    ( 0.0000,  0.0000,  0.0000)
  35 Cu     4.337750   -0.006810   19.354358    ( 0.0000,  0.0000,  0.0000)
  36 Cu     6.660821   -0.019004   20.517743    ( 0.0000,  0.0000,  0.0000)
  37 Cu     4.907381    1.807396   21.135467    ( 0.0000,  0.0000,  0.0000)
  38 Cu    10.766675    1.852949   21.131103    ( 0.0000,  0.0000,  0.0000)
  39 Cu     0.826212    0.005279   20.534888    ( 0.0000,  0.0000,  0.0000)
  40 Cu     3.160551   -0.023036   21.738500    ( 0.0000,  0.0000,  0.0000)
  41 Cu     1.432441    1.840764   22.264126    ( 0.0000,  0.0000,  0.0000)
  42 Cu     7.295651    1.819544   22.195093    ( 0.0000,  0.0000,  0.0000)
  43 Cu     9.050827   -0.005942   21.649908    ( 0.0000,  0.0000,  0.0000)
  44 Cu    11.440538   -0.067453   22.797123    ( 0.0000,  0.0000,  0.0000)
  45 Cu     9.574693    1.735534   23.477405    ( 0.0000,  0.0000,  0.0000)
  46 Cu     3.702514    1.905314   23.527767    ( 0.0000,  0.0000,  0.0000)
  47 Cu     5.501138    0.043323   22.920622    ( 0.0000,  0.0000,  0.0000)
  48 Cu     3.256712    3.645884    9.931953    ( 0.0000,  0.0000,  0.0000)
  49 Cu     1.457872    5.508046   10.538401    ( 0.0000,  0.0000,  0.0000)
  50 Cu     7.222228    5.618628   10.662075    ( 0.0000,  0.0000,  0.0000)
  51 Cu     9.087390    3.816010    9.981952    ( 0.0000,  0.0000,  0.0000)
  52 Cu    11.367384    3.731644   11.263321    ( 0.0000,  0.0000,  0.0000)
  53 Cu     9.612303    5.557025   11.809017    ( 0.0000,  0.0000,  0.0000)
  54 Cu     3.798858    5.574374   11.720123    ( 0.0000,  0.0000,  0.0000)
  55 Cu     5.527053    3.710371   11.194619    ( 0.0000,  0.0000,  0.0000)
  56 Cu     7.896580    3.698253   12.327757    ( 0.0000,  0.0000,  0.0000)
  57 Cu     6.133329    5.545891   12.923754    ( 0.0000,  0.0000,  0.0000)
  58 Cu     0.298965    5.570202   12.940736    ( 0.0000,  0.0000,  0.0000)
  59 Cu     2.052196    3.743734   12.323138    ( 0.0000,  0.0000,  0.0000)
  60 Cu     4.372456    3.716557   13.499309    ( 0.0000,  0.0000,  0.0000)
  61 Cu     2.622303    5.558057   14.104492    ( 0.0000,  0.0000,  0.0000)
  62 Cu     8.453736    5.571056   14.122912    ( 0.0000,  0.0000,  0.0000)
  63 Cu    10.212926    3.711392   13.526626    ( 0.0000,  0.0000,  0.0000)
  64 Cu     0.858364    3.703366   14.690825    ( 0.0000,  0.0000,  0.0000)
  65 Cu    10.802712    5.559760   15.264183    ( 0.0000,  0.0000,  0.0000)
  66 Cu     4.953540    5.555992   15.263711    ( 0.0000,  0.0000,  0.0000)
  67 Cu     6.718413    3.707190   14.687899    ( 0.0000,  0.0000,  0.0000)
  68 Cu     9.046026    3.702160   15.849365    ( 0.0000,  0.0000,  0.0000)
  69 Cu     7.281391    5.552441   16.448185    ( 0.0000,  0.0000,  0.0000)
  70 Cu     1.437225    5.549255   16.436813    ( 0.0000,  0.0000,  0.0000)
  71 Cu     3.198522    3.706693   15.850490    ( 0.0000,  0.0000,  0.0000)
  72 Cu     5.530794    3.699801   17.011279    ( 0.0000,  0.0000,  0.0000)
  73 Cu     3.766101    5.550133   17.609679    ( 0.0000,  0.0000,  0.0000)
  74 Cu     9.613681    5.545501   17.608414    ( 0.0000,  0.0000,  0.0000)
  75 Cu    11.375012    3.702901   17.022386    ( 0.0000,  0.0000,  0.0000)
  76 Cu     2.009306    3.692450   18.194661    ( 0.0000,  0.0000,  0.0000)
  77 Cu     0.249961    5.548857   18.768082    ( 0.0000,  0.0000,  0.0000)
  78 Cu     6.093519    5.544983   18.771206    ( 0.0000,  0.0000,  0.0000)
  79 Cu     7.858516    3.696161   18.195398    ( 0.0000,  0.0000,  0.0000)
  80 Cu    10.189545    3.694191   19.354358    ( 0.0000,  0.0000,  0.0000)
  81 Cu     8.439269    5.535627   19.959207    ( 0.0000,  0.0000,  0.0000)
  82 Cu     2.598879    5.540694   19.931896    ( 0.0000,  0.0000,  0.0000)
  83 Cu     4.357910    3.681137   19.336012    ( 0.0000,  0.0000,  0.0000)
  84 Cu     6.678006    3.706280   20.534888    ( 0.0000,  0.0000,  0.0000)
  85 Cu     4.914880    5.553949   21.131103    ( 0.0000,  0.0000,  0.0000)
  86 Cu    10.759176    5.508396   21.135467    ( 0.0000,  0.0000,  0.0000)
  87 Cu     0.809027    3.681997   20.517743    ( 0.0000,  0.0000,  0.0000)
  88 Cu     3.199033    3.695059   21.649908    ( 0.0000,  0.0000,  0.0000)
  89 Cu     1.443856    5.520545   22.195093    ( 0.0000,  0.0000,  0.0000)
  90 Cu     7.284235    5.541764   22.264126    ( 0.0000,  0.0000,  0.0000)
  91 Cu     9.012345    3.677964   21.738499    ( 0.0000,  0.0000,  0.0000)
  92 Cu    11.352933    3.744324   22.920622    ( 0.0000,  0.0000,  0.0000)
  93 Cu     9.554308    5.606314   23.527768    ( 0.0000,  0.0000,  0.0000)
  94 Cu     3.722898    5.436535   23.477405    ( 0.0000,  0.0000,  0.0000)
  95 Cu     5.588743    3.633547   22.797123    ( 0.0000,  0.0000,  0.0000)
  96 Cl     9.499935    3.625641   24.849134    ( 0.0000,  0.0000,  0.0000)
  97 Cl     7.182698    6.625832   24.367315    ( 0.0000,  0.0000,  0.0000)
  98 Cl     4.755015    3.671880   24.917500    ( 0.0000,  0.0000,  0.0000)
  99 Cl     3.648139   -0.075360   24.849134    ( 0.0000,  0.0000,  0.0000)
 100 Cl    10.606810   -0.029119   24.917501    ( 0.0000,  0.0000,  0.0000)
 101 Cl    13.034494    2.924831   24.367315    ( 0.0000,  0.0000,  0.0000)
 102 Cl     5.628111    2.626027    9.091404    ( 0.0000,  0.0000,  0.0000)
 103 Cl     2.204407    1.879608    8.541563    ( 0.0000,  0.0000,  0.0000)
 104 Cl     3.311141    5.626616    8.610743    ( 0.0000,  0.0000,  0.0000)
 105 Cl    -0.223684   -1.074973    9.091403    ( 0.0000,  0.0000,  0.0000)
 106 Cl    -2.540652    1.925617    8.610744    ( 0.0000,  0.0000,  0.0000)
 107 Cl    -3.647389    5.580609    8.541564    ( 0.0000,  0.0000,  0.0000)

Unit cell:
           periodic     x           y           z      points  spacing
  1. axis:    yes   11.703590    0.000000    0.000000    70     0.1672
  2. axis:    yes    0.000000    7.402000    0.000000    42     0.1762
  3. axis:    no     0.000000    0.000000   33.459128   192     0.1743

  Lengths:  11.703590   7.402000  33.459128
  Angles:   90.000000  90.000000  90.000000

Effective grid spacing dv^(1/3) = 0.1725

     iter     time        total  log10-change:
                         energy  eigst   dens
iter:   1 22:03:24 -7714.356672  -3.47
iter:   2 22:07:26 -7714.245137  -3.77  -2.84
iter:   3 22:11:26 -7714.239521c -4.87  -3.31
iter:   4 22:15:26 -7714.227530c -5.62  -3.31
iter:   5 22:19:28 -7714.226748c -5.24  -3.64
iter:   6 22:23:29 -7714.226517c -6.32  -4.01c
iter:   7 22:27:30 -7714.226405c -6.42  -4.03c
iter:   8 22:31:30 -7714.226406c -6.93  -4.18c
iter:   9 22:35:29 -7714.226488c -6.74  -4.30c
iter:  10 22:39:28 -7714.226451c -7.13  -4.41c
iter:  11 22:43:27 -7714.226413c -7.76c -4.47c

Converged after 11 iterations.

Dipole moment: (41.400885, 11.629736, -0.001590) |e|*Ang

Energy contributions relative to reference atoms: (reference = -4472718.769496)

Kinetic:       +791.867922
Potential:     -861.492874
External:        +0.000000
XC:            -7642.840105
Entropy (-ST):   -0.964627
Local:           -1.279044
--------------------------
Free energy:   -7714.708727
Extrapolated:  -7714.226413

Showing only first 2 kpts
 Kpt  Band  Eigenvalues  Occupancy
  0   568      0.22689    0.98767
  0   569      0.30765    0.60633
  0   570      0.37701    0.35720
  0   571      0.41092    0.26824

  1   568     -0.13420    1.94609
  1   569      0.05429    1.69142
  1   570      0.09260    1.57778
  1   571      0.12870    1.44515


Fermi level: 0.22442

No gap

Forces in eV/Ang:
  0 Cu   -0.00628   -0.00719   -0.00119
  1 Cu    0.00516    0.00360   -0.00464
  2 Cu   -0.00295   -0.01119   -0.00956
  3 Cu   -0.00889   -0.00875   -0.00834
  4 Cu    0.00914    0.00301    0.00566
  5 Cu   -0.00656   -0.00357    0.00129
  6 Cu   -0.00887   -0.00352   -0.00345
  7 Cu   -0.00515   -0.00974    0.00042
  8 Cu   -0.00663    0.00227    0.00106
  9 Cu   -0.00367   -0.00328   -0.00883
 10 Cu   -0.00762   -0.00549   -0.00317
 11 Cu    0.00002    0.00099   -0.00415
 12 Cu   -0.01452   -0.00307   -0.00010
 13 Cu   -0.00456    0.00177   -0.00078
 14 Cu   -0.01177   -0.00175    0.00136
 15 Cu    0.00076   -0.00515   -0.01845
 16 Cu   -0.00613    0.00418    0.00411
 17 Cu   -0.00598    0.00436   -0.00612
 18 Cu   -0.00039    0.00291   -0.00991
 19 Cu   -0.00224   -0.00062   -0.00774
 20 Cu   -0.00299    0.00524   -0.00257
 21 Cu   -0.00567   -0.00081    0.00836
 22 Cu    0.01036    0.00156    0.00194
 23 Cu   -0.01049    0.00057    0.00596
 24 Cu    0.00549    0.00118   -0.00924
 25 Cu    0.00326   -0.00522    0.00254
 26 Cu    0.01103   -0.00088   -0.00664
 27 Cu   -0.01035   -0.00202   -0.00399
 28 Cu    0.00645   -0.00421    0.00518
 29 Cu    0.00554   -0.00422   -0.00367
 30 Cu    0.00246    0.00038    0.00848
 31 Cu    0.00112   -0.00283    0.01001
 32 Cu    0.00527   -0.00137    0.00183
 33 Cu    0.01447    0.00324    0.00211
 34 Cu   -0.00120    0.00516    0.02015
 35 Cu    0.01186    0.00161   -0.00021
 36 Cu    0.00374    0.00324    0.01169
 37 Cu    0.00621   -0.00179    0.00207
 38 Cu   -0.00080   -0.00084    0.00711
 39 Cu    0.00789    0.00541    0.00541
 40 Cu    0.00683    0.00354    0.00088
 41 Cu   -0.00879   -0.00349   -0.00538
 42 Cu    0.00472    0.00934    0.00261
 43 Cu    0.00894    0.00386    0.00574
 44 Cu   -0.00403   -0.00332    0.00259
 45 Cu    0.00635    0.00663   -0.00088
 46 Cu    0.00922    0.00869    0.00603
 47 Cu    0.00317    0.01117    0.00859
 48 Cu   -0.00889   -0.00875   -0.00834
 49 Cu   -0.00295   -0.01119   -0.00956
 50 Cu    0.00516    0.00360   -0.00463
 51 Cu   -0.00628   -0.00718   -0.00119
 52 Cu   -0.00515   -0.00974    0.00042
 53 Cu   -0.00886   -0.00351   -0.00345
 54 Cu   -0.00656   -0.00357    0.00129
 55 Cu    0.00914    0.00301    0.00567
 56 Cu    0.00003    0.00100   -0.00416
 57 Cu   -0.00762   -0.00549   -0.00317
 58 Cu   -0.00367   -0.00328   -0.00883
 59 Cu   -0.00663    0.00227    0.00106
 60 Cu    0.00076   -0.00515   -0.01845
 61 Cu   -0.01177   -0.00175    0.00135
 62 Cu   -0.00456    0.00177   -0.00078
 63 Cu   -0.01452   -0.00306   -0.00010
 64 Cu   -0.00224   -0.00062   -0.00774
 65 Cu   -0.00039    0.00291   -0.00991
 66 Cu   -0.00599    0.00436   -0.00612
 67 Cu   -0.00613    0.00418    0.00411
 68 Cu   -0.01049    0.00057    0.00597
 69 Cu    0.01036    0.00156    0.00194
 70 Cu   -0.00567   -0.00081    0.00836
 71 Cu   -0.00299    0.00524   -0.00257
 72 Cu   -0.01035   -0.00202   -0.00399
 73 Cu    0.01103   -0.00088   -0.00664
 74 Cu    0.00327   -0.00522    0.00254
 75 Cu    0.00549    0.00118   -0.00924
 76 Cu    0.00112   -0.00283    0.01001
 77 Cu    0.00246    0.00038    0.00848
 78 Cu    0.00554   -0.00422   -0.00367
 79 Cu    0.00645   -0.00421    0.00518
 80 Cu    0.01186    0.00161   -0.00021
 81 Cu   -0.00121    0.00516    0.02015
 82 Cu    0.01447    0.00323    0.00211
 83 Cu    0.00527   -0.00137    0.00183
 84 Cu    0.00789    0.00541    0.00540
 85 Cu   -0.00080   -0.00084    0.00711
 86 Cu    0.00622   -0.00179    0.00207
 87 Cu    0.00373    0.00324    0.01170
 88 Cu    0.00894    0.00385    0.00574
 89 Cu    0.00472    0.00934    0.00261
 90 Cu   -0.00878   -0.00349   -0.00538
 91 Cu    0.00684    0.00354    0.00088
 92 Cu    0.00317    0.01117    0.00859
 93 Cu    0.00922    0.00869    0.00603
 94 Cu    0.00635    0.00663   -0.00088
 95 Cu   -0.00403   -0.00331    0.00259
 96 Cl   -0.00461    0.00529    0.01023
 97 Cl   -0.00347    0.01236    0.01819
 98 Cl   -0.00710    0.01455    0.01077
 99 Cl   -0.00461    0.00529    0.01023
100 Cl   -0.00710    0.01455    0.01077
101 Cl   -0.00347    0.01236    0.01819
102 Cl    0.00446   -0.01180   -0.01979
103 Cl    0.00561   -0.01457   -0.01324
104 Cl    0.00534   -0.00513   -0.01536
105 Cl    0.00446   -0.01180   -0.01978
106 Cl    0.00533   -0.00513   -0.01537
107 Cl    0.00560   -0.01457   -0.01325

Timing:                                      incl.     excl.
-------------------------------------------------------------------
Density initialized from wave functions:   294.764   294.763   0.3% |
 Symmetrize density:                         0.001     0.001   0.0% |
Forces:                                   2133.171  2133.171   2.3% ||
Hamiltonian:                               379.638     0.523   0.0% |
 Atomic:                                    12.711     2.038   0.0% |
  XC Correction:                            10.673    10.673   0.0% |
 Calculate atomic Hamiltonians:            158.149   158.149   0.2% |
 Communicate:                                7.845     7.845   0.0% |
 Initialize Hamiltonian:                     0.002     0.002   0.0% |
 Poisson:                                    0.231     0.231   0.0% |
 XC 3D grid:                               200.177    34.756   0.0% |
  VdW-DF integral:                         165.421     1.227   0.0% |
   Convolution:                             16.248    16.248   0.0% |
   FFT:                                      5.958     5.958   0.0% |
   gather:                                  47.733    47.733   0.1% |
   hmm1:                                     7.896     7.896   0.0% |
   hmm2:                                     7.776     7.776   0.0% |
   iFFT:                                     6.037     6.037   0.0% |
   potential:                               64.916     0.719   0.0% |
    collect:                                 7.675     7.675   0.0% |
    p1:                                     33.635    33.635   0.0% |
    p2:                                     12.352    12.352   0.0% |
    sum:                                    10.534    10.534   0.0% |
   splines:                                  7.629     7.629   0.0% |
LCAO initialization:                      1107.332     0.643   0.0% |
 LCAO eigensolver:                          30.932     0.003   0.0% |
  Blacs Orbital Layouts:                     5.799     0.000   0.0% |
   General diagonalize:                      5.761     5.761   0.0% |
   Redistribute coefs:                       0.022     0.022   0.0% |
   Send coefs to domains:                    0.015     0.015   0.0% |
  Calculate projections:                     0.030     0.030   0.0% |
  Distribute overlap matrix:                24.279     0.002   0.0% |
   Scalapack redistribute:                   0.032     0.032   0.0% |
   blocked summation:                       24.245    24.245   0.0% |
  Potential matrix:                          0.502     0.502   0.0% |
  SparseAtomicCorrection:                    0.019     0.019   0.0% |
  Sum over cells:                            0.301     0.301   0.0% |
 LCAO to grid:                            1047.612  1047.612   1.1% |
 Set positions (LCAO WFS):                  28.145     0.024   0.0% |
  Basic WFS set positions:                   0.007     0.007   0.0% |
  Basis functions set positions:             0.001     0.001   0.0% |
  P tci:                                     0.001     0.001   0.0% |
  ST tci:                                    1.119     1.119   0.0% |
  Scalapack redistribute:                   21.371    21.371   0.0% |
  blocked summation:                         5.282     5.282   0.0% |
  mktci:                                     0.340     0.340   0.0% |
PWDescriptor:                                1.163     1.163   0.0% |
Redistribute:                                0.027     0.027   0.0% |
SCF-cycle:                               87383.049   440.613   0.5% |
 Davidson:                               75473.324 24050.787  26.2% |---------|
  Apply H:                                4514.228  4426.509   4.8% |-|
   HMM T:                                   87.719    87.719   0.1% |
  Subspace diag:                         11205.537     0.076   0.0% |
   calc_h_matrix:                         6835.110  2390.464   2.6% ||
    Apply H:                              4444.646  4352.257   4.7% |-|
     HMM T:                                 92.390    92.390   0.1% |
   diagonalize:                            241.632   241.632   0.3% |
   rotate_psi:                            4128.719  4128.719   4.5% |-|
  calc. matrices:                        25309.246 16614.427  18.1% |------|
   Apply H:                               8694.819  8519.989   9.3% |---|
    HMM T:                                 174.829   174.829   0.2% |
  diagonalize:                            2170.383  2170.383   2.4% ||
  rotate_psi:                             8223.144  8223.144   8.9% |---|
 Density:                                 5052.376     0.022   0.0% |
  Atomic density matrices:                  13.360    13.360   0.0% |
  Mix:                                    2693.677  2693.677   2.9% ||
  Multipole moments:                         1.328     1.328   0.0% |
  Pseudo density:                         2343.988  2343.965   2.5% ||
   Symmetrize density:                       0.023     0.023   0.0% |
 Hamiltonian:                             5861.698     8.137   0.0% |
  Atomic:                                  218.578    47.532   0.1% |
   XC Correction:                          171.046   171.046   0.2% |
  Calculate atomic Hamiltonians:          2541.367  2541.367   2.8% ||
  Communicate:                             124.853   124.853   0.1% |
  Poisson:                                   3.632     3.632   0.0% |
  XC 3D grid:                             2965.131   447.632   0.5% |
   VdW-DF integral:                       2517.499    19.345   0.0% |
    Convolution:                           253.383   253.383   0.3% |
    FFT:                                    94.097    94.097   0.1% |
    gather:                                769.514   769.514   0.8% |
    hmm1:                                  125.853   125.853   0.1% |
    hmm2:                                  122.551   122.551   0.1% |
    iFFT:                                   93.564    93.564   0.1% |
    potential:                            1039.187    10.813   0.0% |
     collect:                              125.023   125.023   0.1% |
     p1:                                   534.949   534.949   0.6% |
     p2:                                   192.833   192.833   0.2% |
     sum:                                  175.570   175.570   0.2% |
    splines:                                 0.005     0.005   0.0% |
 Orthonormalize:                           555.039     0.009   0.0% |
  calc_s_matrix:                            70.023    70.023   0.1% |
  inverse-cholesky:                         25.594    25.594   0.0% |
  projections:                             339.200   339.200   0.4% |
  rotate_psi_s:                            120.214   120.214   0.1% |
Set symmetry:                                0.002     0.002   0.0% |
Other:                                     626.309   626.309   0.7% |
-------------------------------------------------------------------
Total:                                             91925.455 100.0%

Memory usage: 2.55 GiB
Date: Wed Oct 19 22:45:07 2022
