
  ___ ___ ___ _ _ _  
 |   |   |_  | | | | 
 | | | | | . | | | | 
 |__ |  _|___|_____|  22.1.0
 |___|_|             

User:   thorkong@node061.cluster
Date:   Mon Oct 17 14:44:19 2022
Arch:   x86_64
Pid:    46849
Python: 3.10.5
gpaw:   /groups/kemi/thorkong/miniconda3/envs/gpaw22/lib/python3.10/site-packages/gpaw
_gpaw:  /groups/kemi/thorkong/miniconda3/envs/gpaw22/lib/python3.10/site-packages/
        _gpaw.cpython-310-x86_64-linux-gnu.so
ase:    /groups/kemi/thorkong/miniconda3/envs/gpaw22/lib/python3.10/site-packages/ase (version 3.22.1)
numpy:  /groups/kemi/thorkong/miniconda3/envs/gpaw22/lib/python3.10/site-packages/numpy (version 1.23.0)
scipy:  /groups/kemi/thorkong/miniconda3/envs/gpaw22/lib/python3.10/site-packages/scipy (version 1.8.1)
libxc:  5.2.3
units:  Angstrom and eV
cores: 32
OpenMP: True
OMP_NUM_THREADS: 1

Input parameters:
  basis: dzp
  kpts: [4 4 1]
  mode: {ecut: 600.0,
         name: pw}
  xc: BEEF-vdW

System changes: positions, numbers, cell, pbc, initial_charges, initial_magmoms 

Initialize ...

Cu-setup:
  name: Copper
  id: f1c4d45d90492f1bbfdcb091e8418fdf
  Z: 29.0
  valence: 11
  core: 18
  charge: 0.0
  file: /groups/kemi/thorkong/miniconda3/envs/gpaw22/share/gpaw/Cu.PBE.gz
  compensation charges: gauss, rc=0.33, lmax=2
  cutoffs: 2.06(filt), 2.43(core),
  valence states:
                energy  radius
    4s(1.00)    -4.609   1.164
    4p(0.00)    -0.698   1.164
    3d(10.00)    -5.039   1.058
    *s          22.603   1.164
    *p          26.513   1.164
    *d          22.172   1.058

  LCAO basis set for Cu:
    Name: dzp
    File: /groups/kemi/thorkong/miniconda3/envs/gpaw22/share/gpaw/Cu.dzp.basis.gz
    Number of radial functions: 5
    Number of spherical harmonics: 15
      l=0, rc=8.9688 Bohr: 4s-sz confined orbital
      l=2, rc=5.1719 Bohr: 3d-sz confined orbital
      l=0, rc=5.3281 Bohr: 4s-dz split-valence wave
      l=2, rc=3.1406 Bohr: 3d-dz split-valence wave
      l=1, rc=8.9688 Bohr: p-type Gaussian polarization

Cl-setup:
  name: Chlorine
  id: 726897f06f34e53cf8e33b5885a02604
  Z: 17.0
  valence: 7
  core: 10
  charge: 0.0
  file: /groups/kemi/thorkong/miniconda3/envs/gpaw22/share/gpaw/Cl.PBE.gz
  compensation charges: gauss, rc=0.25, lmax=2
  cutoffs: 1.40(filt), 1.49(core),
  valence states:
                energy  radius
    3s(2.00)   -20.689   0.794
    3p(5.00)    -8.594   0.794
    *s           6.523   0.794
    *p          18.617   0.794
    *d           0.000   0.794

  LCAO basis set for Cl:
    Name: dzp
    File: /groups/kemi/thorkong/miniconda3/envs/gpaw22/share/gpaw/Cl.dzp.basis.gz
    Number of radial functions: 5
    Number of spherical harmonics: 13
      l=0, rc=5.1719 Bohr: 3s-sz confined orbital
      l=1, rc=6.2656 Bohr: 3p-sz confined orbital
      l=0, rc=2.8281 Bohr: 3s-dz split-valence wave
      l=1, rc=3.5156 Bohr: 3p-dz split-valence wave
      l=2, rc=6.2656 Bohr: d-type Gaussian polarization

Reference energy: -2556707.893378

Spin-paired calculation

Convergence criteria:
 Maximum [total energy] change in last 3 cyles: 0.0005 eV / electron
 Maximum integral of absolute [dens]ity change: 0.0001 electrons / valence electron
 Maximum integral of absolute [eigenst]ate change: 4e-08 eV^2 / valence electron
 Maximum number of scf [iter]ations: 333
 (Square brackets indicate name in SCF output, whereas a 'c' in
 the SCF output indicates the quantity has converged.)

Symmetries present (total): 1

  ( 1  0  0)
  ( 0  1  0)
  ( 0  0  1)

16 k-points: 4 x 4 x 1 Monkhorst-Pack grid
8 k-points in the irreducible part of the Brillouin zone
       k-points in crystal coordinates                weights
   0:     0.12500000   -0.37500000    0.00000000          2/16
   1:     0.12500000   -0.12500000    0.00000000          2/16
   2:     0.12500000    0.12500000    0.00000000          2/16
   3:     0.12500000    0.37500000    0.00000000          2/16
   4:     0.37500000   -0.37500000    0.00000000          2/16
   5:     0.37500000   -0.12500000    0.00000000          2/16
   6:     0.37500000    0.12500000    0.00000000          2/16
   7:     0.37500000    0.37500000    0.00000000          2/16

Wave functions: Plane wave expansion
  Cutoff energy: 600.000 eV
  Number of coefficients (min, max): 63070, 63184
  Pulay-stress correction: 0.000000 eV/Ang^3 (de/decut=0.000000)
  Using FFTW library
  ScaLapack parameters: grid=2x2, blocksize=64
  Wavefunction extrapolation:
    Improved wavefunction reuse through dual PAW basis 

Occupation numbers: Fermi-Dirac: width=0.1000 eV
 

Eigensolver
   Davidson(niter=2) 

Densities:
  Coarse grid: 45*48*175 grid
  Fine grid: 90*96*350 grid
  Total Charge: 0.000000 

Density mixing:
  Method: separate
  Backend: pulay
  Linear mixing parameter: 0.05
  Mixing with 5 old densities
  Damping of long wave oscillations: 50 

Hamiltonian:
  XC and Coulomb potentials evaluated on a 90*96*350 grid
  Using the BEEF-vdW Exchange-Correlation functional
  External potential:
    NoExternalPotential
 

XC parameters: BEEF-vdW with 2 nearest neighbor stencil

Memory estimate:
  Process memory now: 256.50 MiB
  Calculator: 885.52 MiB
    Density: 47.05 MiB
      Arrays: 18.85 MiB
      Localized functions: 20.94 MiB
      Mixer: 7.25 MiB
    Hamiltonian: 12.84 MiB
      Arrays: 12.33 MiB
      XC: 0.00 MiB
      Poisson: 0.00 MiB
      vbar: 0.51 MiB
    Wavefunctions: 825.63 MiB
      Arrays psit_nG: 388.54 MiB
      Eigensolver: 418.15 MiB
      Projections: 1.69 MiB
      Projectors: 2.41 MiB
      PW-descriptor: 14.84 MiB

Total number of cores used: 32
Parallelization over k-points: 8
Domain decomposition: 1 x 1 x 4
                      2 x 2 x 8 (xc only)

Number of atoms: 64
Number of atomic orbitals: 940
Number of bands in calculation: 403
Number of valence electrons: 664
Bands to converge: occupied

... initialized

Initializing position-dependent things.

Density initialized from atomic densities
Creating initial wave functions:
  403 bands from LCAO basis set

                                     
                                     
                                     
                                     
            Cl          Cl           
                                     
                Cl                   
        Cl Cu    Cu  Cl Cu           
                                     
         Cu    Cu    CCu    Cu       
       Cu    Cu    Cu     Cu         
              Cu    Cu               
           Cu    CCu    Cu           
         Cu    Cu    CCu    Cu       
                                     
       Cu    CCu   CCu    Cu         
           Cu    CCu   CCu           
                                     
         Cu    Cu    CCu    Cu       
             Cu     Cu    Cu         
       Cu     Cu    Cu               
           Cu Cl  Cu    Cu Cl        
                                     
                   Cl                
          Cl           Cl            
                                     
                                     
                                     
                                     

Positions:
   0 Cu     1.851874    1.842086   10.044767    ( 0.0000,  0.0000,  0.0000)
   1 Cu     0.572048    0.518337   11.854739    ( 0.0000,  0.0000,  0.0000)
   2 Cu     3.208369    0.549454   11.826759    ( 0.0000,  0.0000,  0.0000)
   3 Cu     1.885044    1.836608   13.699605    ( 0.0000,  0.0000,  0.0000)
   4 Cu     0.579320    0.526826   15.560947    ( 0.0000,  0.0000,  0.0000)
   5 Cu     3.185437    0.522508   15.555968    ( 0.0000,  0.0000,  0.0000)
   6 Cu     1.901068    1.854575   17.424612    ( 0.0000,  0.0000,  0.0000)
   7 Cu     0.575906    0.561899   19.206760    ( 0.0000,  0.0000,  0.0000)
   8 Cu     3.188310    0.488633   19.210481    ( 0.0000,  0.0000,  0.0000)
   9 Cu     0.574574    3.144633   11.846476    ( 0.0000,  0.0000,  0.0000)
  10 Cu     0.575916    3.143785   15.552326    ( 0.0000,  0.0000,  0.0000)
  11 Cu     0.546349    3.145891   19.206137    ( 0.0000,  0.0000,  0.0000)
  12 Cu     7.147069    1.821677   10.043621    ( 0.0000,  0.0000,  0.0000)
  13 Cu     5.794000    0.540777   11.820405    ( 0.0000,  0.0000,  0.0000)
  14 Cu     7.114080    1.831917   13.694773    ( 0.0000,  0.0000,  0.0000)
  15 Cu     5.808982    0.523918   15.556714    ( 0.0000,  0.0000,  0.0000)
  16 Cu     7.113100    1.827061   17.396972    ( 0.0000,  0.0000,  0.0000)
  17 Cu     5.807880    0.526790   19.217827    ( 0.0000,  0.0000,  0.0000)
  18 Cu     4.494064    1.763231    9.932089    ( 0.0000,  0.0000,  0.0000)
  19 Cu     4.496146    4.525263    9.931071    ( 0.0000,  0.0000,  0.0000)
  20 Cu     3.207669    3.147945   11.830838    ( 0.0000,  0.0000,  0.0000)
  21 Cu     5.791432    3.139321   11.831411    ( 0.0000,  0.0000,  0.0000)
  22 Cu     4.501104    1.833097   13.705422    ( 0.0000,  0.0000,  0.0000)
  23 Cu     4.500286    4.451342   13.700374    ( 0.0000,  0.0000,  0.0000)
  24 Cu     3.191019    3.143173   15.550169    ( 0.0000,  0.0000,  0.0000)
  25 Cu     5.806714    3.142761   15.552225    ( 0.0000,  0.0000,  0.0000)
  26 Cu     4.483820    1.848780   17.430757    ( 0.0000,  0.0000,  0.0000)
  27 Cu     4.483576    4.446716   17.420218    ( 0.0000,  0.0000,  0.0000)
  28 Cu     3.195113    3.070202   19.320757    ( 0.0000,  0.0000,  0.0000)
  29 Cu     5.840799    3.127025   19.209886    ( 0.0000,  0.0000,  0.0000)
  30 Cu     1.850636    4.467419   10.041562    ( 0.0000,  0.0000,  0.0000)
  31 Cu     1.883456    7.067453   10.032493    ( 0.0000,  0.0000,  0.0000)
  32 Cu     0.578168    5.767618   11.853682    ( 0.0000,  0.0000,  0.0000)
  33 Cu     3.207330    5.746015   11.820678    ( 0.0000,  0.0000,  0.0000)
  34 Cu     1.884398    4.451712   13.698510    ( 0.0000,  0.0000,  0.0000)
  35 Cu     1.882140    7.070634   13.694193    ( 0.0000,  0.0000,  0.0000)
  36 Cu     0.577138    5.762455   15.555937    ( 0.0000,  0.0000,  0.0000)
  37 Cu     3.190200    5.761333   15.545038    ( 0.0000,  0.0000,  0.0000)
  38 Cu     1.899950    4.455283   17.419419    ( 0.0000,  0.0000,  0.0000)
  39 Cu     1.897387    7.053708   17.430112    ( 0.0000,  0.0000,  0.0000)
  40 Cu     0.544416    5.772752   19.207193    ( 0.0000,  0.0000,  0.0000)
  41 Cu     3.197353    5.832220   19.317966    ( 0.0000,  0.0000,  0.0000)
  42 Cu     7.144990    4.448863   10.045121    ( 0.0000,  0.0000,  0.0000)
  43 Cu     7.115261    7.033008   10.044024    ( 0.0000,  0.0000,  0.0000)
  44 Cu     5.790284    5.740371   11.826573    ( 0.0000,  0.0000,  0.0000)
  45 Cu     7.115409    4.450638   13.698320    ( 0.0000,  0.0000,  0.0000)
  46 Cu     7.111993    7.067752   13.689826    ( 0.0000,  0.0000,  0.0000)
  47 Cu     5.806194    5.757852   15.551058    ( 0.0000,  0.0000,  0.0000)
  48 Cu     7.116689    4.449777   17.404260    ( 0.0000,  0.0000,  0.0000)
  49 Cu     7.119110    7.076103   17.395949    ( 0.0000,  0.0000,  0.0000)
  50 Cu     5.839650    5.752596   19.206190    ( 0.0000,  0.0000,  0.0000)
  51 Cu     4.502840    7.106124   10.040718    ( 0.0000,  0.0000,  0.0000)
  52 Cu     4.505854    7.072213   13.694900    ( 0.0000,  0.0000,  0.0000)
  53 Cu     4.482985    7.045347   17.423899    ( 0.0000,  0.0000,  0.0000)
  54 Cl     3.111134    4.453599   21.202893    ( 0.0000,  0.0000,  0.0000)
  55 Cl     4.580310    3.143724    8.048163    ( 0.0000,  0.0000,  0.0000)
  56 Cl     1.867046    5.767436    8.237027    ( 0.0000,  0.0000,  0.0000)
  57 Cl     0.561128    1.853895   21.006449    ( 0.0000,  0.0000,  0.0000)
  58 Cl     5.840224    7.039810   21.008038    ( 0.0000,  0.0000,  0.0000)
  59 Cl     7.093286    0.367959    8.057112    ( 0.0000,  0.0000,  0.0000)
  60 Cl     7.130126    5.740935    8.244573    ( 0.0000,  0.0000,  0.0000)
  61 Cl     5.824339    1.826908   21.013856    ( 0.0000,  0.0000,  0.0000)
  62 Cl     0.561128    7.353895   21.006449    ( 0.0000,  0.0000,  0.0000)
  63 Cl     1.699919    0.405738    8.070012    ( 0.0000,  0.0000,  0.0000)

Unit cell:
           periodic     x           y           z      points  spacing
  1. axis:    yes    7.851007    0.000000    0.000000    45     0.1655
  2. axis:    yes    2.617002    7.851007    0.000000    48     0.1636
  3. axis:    yes    0.000000    0.000000   30.683867   175     0.1753

  Lengths:   7.851007   8.275688  30.683867
  Angles:   90.000000  90.000000  71.565053

Effective grid spacing dv^(1/3) = 0.1710

     iter     time        total  log10-change:
                         energy  eigst   dens
iter:   1 14:49:44 -4684.498778
iter:   2 14:50:45 -4525.033060  +0.35  -0.83
iter:   3 14:51:38 -4466.284816  -0.72  -1.15
iter:   4 14:52:31 -4455.237668  -1.74  -1.34
iter:   5 14:53:24 -4454.601536  -1.73  -1.46
iter:   6 14:54:18 -4451.779133  -1.94  -1.53
iter:   7 14:55:11 -4451.105403  -2.55  -1.62
iter:   8 14:56:04 -4450.380168  -2.42  -1.71
iter:   9 14:56:58 -4449.593667  -2.08  -1.85
iter:  10 14:57:51 -4449.267168  -2.60  -2.15
iter:  11 14:58:45 -4449.032458  -3.26  -2.36
iter:  12 14:59:38 -4448.792801  -3.15  -2.37
iter:  13 15:00:31 -4448.831281c -3.19  -2.43
iter:  14 15:01:25 -4448.762839c -3.52  -2.47
iter:  15 15:02:18 -4448.737275c -3.70  -2.67
iter:  16 15:03:11 -4448.731694c -3.94  -2.78
iter:  17 15:04:05 -4448.714759c -4.55  -2.96
iter:  18 15:04:59 -4448.712093c -4.60  -3.05
iter:  19 15:05:55 -4448.713944c -4.85  -3.19
iter:  20 15:07:05 -4448.709100c -5.56  -3.35
iter:  21 15:07:59 -4448.707398c -5.19  -3.44
iter:  22 15:08:52 -4448.710248c -5.30  -3.54
iter:  23 15:09:45 -4448.708126c -5.80  -3.59
iter:  24 15:10:38 -4448.707744c -6.80  -3.70
iter:  25 15:11:32 -4448.707487c -6.22  -3.73
iter:  26 15:12:25 -4448.707606c -5.93  -3.78
iter:  27 15:13:18 -4448.707497c -6.72  -3.87
iter:  28 15:14:11 -4448.707371c -7.16  -3.98
iter:  29 15:15:04 -4448.707265c -6.57  -4.05c
iter:  30 15:15:58 -4448.707134c -7.26  -4.22c
iter:  31 15:16:51 -4448.707399c -6.68  -4.32c
iter:  32 15:17:44 -4448.707125c -7.51c -4.41c

Converged after 32 iterations.

Dipole moment: (-4.305298, -39.863000, 0.097360) |e|*Ang

Energy contributions relative to reference atoms: (reference = -2556707.893378)

Kinetic:       +537.596989
Potential:     -557.045826
External:        +0.000000
XC:            -4428.120415
Entropy (-ST):   -0.738409
Local:           -0.768669
--------------------------
Free energy:   -4449.076330
Extrapolated:  -4448.707125

Showing only first 2 kpts
 Kpt  Band  Eigenvalues  Occupancy
  0   330     -0.66601    1.80550
  0   331     -0.62451    1.71950
  0   332     -0.60065    1.65687
  0   333     -0.43876    0.97783

  1   330     -0.64898    1.77348
  1   331     -0.61557    1.69722
  1   332     -0.47797    1.17216
  1   333     -0.30441    0.39952


Fermi level: -0.44319

No gap

Forces in eV/Ang:
  0 Cu    0.17495    0.15703   -0.42751
  1 Cu   -0.04923   -0.02274    0.24874
  2 Cu    0.10063   -0.06495    0.11589
  3 Cu    0.00580   -0.02100    0.01932
  4 Cu    0.01206    0.01913   -0.03629
  5 Cu    0.00028   -0.00633   -0.02266
  6 Cu    0.11517   -0.06489   -0.17498
  7 Cu    0.20711   -0.55698   -0.22124
  8 Cu   -0.24277    0.55414   -0.25366
  9 Cu   -0.01315   -0.01288   -0.06035
 10 Cu   -0.00220   -0.02235   -0.04701
 11 Cu    0.21997    0.73799   -0.21526
 12 Cu   -0.20808    0.04862   -0.45094
 13 Cu   -0.05162   -0.09173    0.07492
 14 Cu   -0.01781    0.00332    0.05722
 15 Cu   -0.01138   -0.00027   -0.02631
 16 Cu   -0.04989   -0.04707   -0.36812
 17 Cu    0.06927    0.66848   -2.67343
 18 Cu    0.00715    0.21235   -0.21393
 19 Cu   -0.01842   -0.25541   -0.18867
 20 Cu   -0.09020   -0.02252   -0.05806
 21 Cu    0.09290    0.02562   -0.03901
 22 Cu    0.01093    0.02794    0.06692
 23 Cu   -0.02198   -0.02289   -0.00328
 24 Cu    0.01932    0.02856   -0.00719
 25 Cu   -0.01124    0.00381   -0.01239
 26 Cu   -0.05013   -0.08822   -0.14993
 27 Cu    0.09479    0.02735    0.04385
 28 Cu    0.01234    0.23686    0.16248
 29 Cu   -0.25627    0.59605   -0.14558
 30 Cu    0.26439   -0.55942    0.05126
 31 Cu   -0.00566    0.34480    0.83342
 32 Cu    0.04637    0.04599    0.35499
 33 Cu    0.05236    0.08632    0.14413
 34 Cu    0.00897   -0.00351   -0.00395
 35 Cu    0.01010    0.00466    0.03867
 36 Cu    0.01866   -0.00035   -0.04515
 37 Cu   -0.01725   -0.03325   -0.06224
 38 Cu   -0.09459   -0.01458    0.03920
 39 Cu    0.08508    0.08357   -0.11199
 40 Cu    0.21551   -0.19720    0.27844
 41 Cu   -0.02201   -0.25162    0.17162
 42 Cu   -0.22506   -0.69451    0.20023
 43 Cu   -0.20823    0.60222    0.17159
 44 Cu   -0.11275    0.06696    0.16542
 45 Cu    0.00749    0.02181    0.04334
 46 Cu   -0.00938   -0.01873    0.03031
 47 Cu   -0.00102    0.01754   -0.00466
 48 Cu    0.00267    0.01746    0.05833
 49 Cu    0.03810    0.02835   -0.33013
 50 Cu   -0.17659   -0.70832   -0.17980
 51 Cu    0.22361   -0.19450   -0.18406
 52 Cu   -0.00211    0.00706    0.02252
 53 Cu   -0.12773    0.06124   -0.17972
 54 Cl    0.00486    0.06885   -0.41592
 55 Cl   -0.07693   -0.09549    0.45785
 56 Cl    2.71209   -3.71105   -0.60520
 57 Cl    2.74784    0.00903    0.75596
 58 Cl   -2.69983   -0.34402    0.77047
 59 Cl   -3.17598    3.79445   -0.22941
 60 Cl   -2.71993   -0.03237   -0.72627
 61 Cl   -2.71959    4.63955    1.06824
 62 Cl    2.65371   -5.41826    1.99299
 63 Cl    3.25327    0.33629    0.40970

System changes: positions 

Initializing position-dependent things.

Density initialized from wave functions
                                     
                                     
                                     
                                     
            Cl          Cl           
                                     
                Cl                   
        Cl Cu    Cu  Cl Cu           
               Cu    Cu     Cu       
         Cu    Cu     Cu             
             Cu    Cu     Cu         
       Cu     Cu    Cu               
           Cu    CCu    Cu           
         Cu    Cu    CCu    Cu       
                                     
       Cu    CCu    Cu    Cu         
           Cu    CCu    Cu           
               Cu    Cu     Cu       
         Cu     Cu    Cu             
             Cu     Cu    Cu         
       Cu     Cu    Cu               
           Cu Cl  Cu    Cu Cl        
                   Cl                
                                     
          Cl           Cl            
                                     
                                     
                                     
                                     

Positions:
   0 Cu     1.857381    1.847029   10.031310    ( 0.0000,  0.0000,  0.0000)
   1 Cu     0.570498    0.517621   11.862569    ( 0.0000,  0.0000,  0.0000)
   2 Cu     3.211536    0.547410   11.830407    ( 0.0000,  0.0000,  0.0000)
   3 Cu     1.885226    1.835947   13.700213    ( 0.0000,  0.0000,  0.0000)
   4 Cu     0.579700    0.527428   15.559805    ( 0.0000,  0.0000,  0.0000)
   5 Cu     3.185446    0.522309   15.555255    ( 0.0000,  0.0000,  0.0000)
   6 Cu     1.904693    1.852532   17.419104    ( 0.0000,  0.0000,  0.0000)
   7 Cu     0.582425    0.544367   19.199796    ( 0.0000,  0.0000,  0.0000)
   8 Cu     3.180668    0.506076   19.202497    ( 0.0000,  0.0000,  0.0000)
   9 Cu     0.574160    3.144228   11.844576    ( 0.0000,  0.0000,  0.0000)
  10 Cu     0.575847    3.143081   15.550846    ( 0.0000,  0.0000,  0.0000)
  11 Cu     0.553273    3.169121   19.199361    ( 0.0000,  0.0000,  0.0000)
  12 Cu     7.140519    1.823207   10.029427    ( 0.0000,  0.0000,  0.0000)
  13 Cu     5.792375    0.537890   11.822763    ( 0.0000,  0.0000,  0.0000)
  14 Cu     7.113519    1.832021   13.696574    ( 0.0000,  0.0000,  0.0000)
  15 Cu     5.808624    0.523909   15.555886    ( 0.0000,  0.0000,  0.0000)
  16 Cu     7.111530    1.825579   17.385385    ( 0.0000,  0.0000,  0.0000)
  17 Cu     5.810060    0.547832   19.133676    ( 0.0000,  0.0000,  0.0000)
  18 Cu     4.494289    1.769915    9.925355    ( 0.0000,  0.0000,  0.0000)
  19 Cu     4.495566    4.517224    9.925132    ( 0.0000,  0.0000,  0.0000)
  20 Cu     3.204830    3.147236   11.829011    ( 0.0000,  0.0000,  0.0000)
  21 Cu     5.794356    3.140127   11.830183    ( 0.0000,  0.0000,  0.0000)
  22 Cu     4.501448    1.833976   13.707528    ( 0.0000,  0.0000,  0.0000)
  23 Cu     4.499594    4.450622   13.700271    ( 0.0000,  0.0000,  0.0000)
  24 Cu     3.191627    3.144072   15.549943    ( 0.0000,  0.0000,  0.0000)
  25 Cu     5.806360    3.142881   15.551835    ( 0.0000,  0.0000,  0.0000)
  26 Cu     4.482242    1.846003   17.426038    ( 0.0000,  0.0000,  0.0000)
  27 Cu     4.486560    4.447577   17.421598    ( 0.0000,  0.0000,  0.0000)
  28 Cu     3.195502    3.077658   19.325871    ( 0.0000,  0.0000,  0.0000)
  29 Cu     5.832732    3.145787   19.205304    ( 0.0000,  0.0000,  0.0000)
  30 Cu     1.858958    4.449810   10.043175    ( 0.0000,  0.0000,  0.0000)
  31 Cu     1.883278    7.078306   10.058726    ( 0.0000,  0.0000,  0.0000)
  32 Cu     0.579628    5.769066   11.864856    ( 0.0000,  0.0000,  0.0000)
  33 Cu     3.208978    5.748732   11.825215    ( 0.0000,  0.0000,  0.0000)
  34 Cu     1.884680    4.451601   13.698386    ( 0.0000,  0.0000,  0.0000)
  35 Cu     1.882458    7.070781   13.695410    ( 0.0000,  0.0000,  0.0000)
  36 Cu     0.577725    5.762444   15.554516    ( 0.0000,  0.0000,  0.0000)
  37 Cu     3.189657    5.760286   15.543079    ( 0.0000,  0.0000,  0.0000)
  38 Cu     1.896972    4.454824   17.420653    ( 0.0000,  0.0000,  0.0000)
  39 Cu     1.900065    7.056338   17.426587    ( 0.0000,  0.0000,  0.0000)
  40 Cu     0.551200    5.766545   19.215957    ( 0.0000,  0.0000,  0.0000)
  41 Cu     3.196660    5.824300   19.323368    ( 0.0000,  0.0000,  0.0000)
  42 Cu     7.137906    4.427002   10.051424    ( 0.0000,  0.0000,  0.0000)
  43 Cu     7.108707    7.051964   10.049425    ( 0.0000,  0.0000,  0.0000)
  44 Cu     5.786735    5.742479   11.831780    ( 0.0000,  0.0000,  0.0000)
  45 Cu     7.115645    4.451324   13.699684    ( 0.0000,  0.0000,  0.0000)
  46 Cu     7.111698    7.067162   13.690780    ( 0.0000,  0.0000,  0.0000)
  47 Cu     5.806162    5.758404   15.550911    ( 0.0000,  0.0000,  0.0000)
  48 Cu     7.116773    4.450327   17.406096    ( 0.0000,  0.0000,  0.0000)
  49 Cu     7.120309    7.076995   17.385557    ( 0.0000,  0.0000,  0.0000)
  50 Cu     5.834091    5.730300   19.200530    ( 0.0000,  0.0000,  0.0000)
  51 Cu     4.509878    7.100002   10.034924    ( 0.0000,  0.0000,  0.0000)
  52 Cu     4.505787    7.072435   13.695609    ( 0.0000,  0.0000,  0.0000)
  53 Cu     4.478964    7.047275   17.418242    ( 0.0000,  0.0000,  0.0000)
  54 Cl     3.111287    4.455766   21.189801    ( 0.0000,  0.0000,  0.0000)
  55 Cl     4.577889    3.140718    8.062575    ( 0.0000,  0.0000,  0.0000)
  56 Cl     1.952414    5.650624    8.217978    ( 0.0000,  0.0000,  0.0000)
  57 Cl     0.647621    1.854179   21.030244    ( 0.0000,  0.0000,  0.0000)
  58 Cl     5.755243    7.028982   21.032290    ( 0.0000,  0.0000,  0.0000)
  59 Cl     6.993316    0.487396    8.049891    ( 0.0000,  0.0000,  0.0000)
  60 Cl     7.044511    5.739917    8.221712    ( 0.0000,  0.0000,  0.0000)
  61 Cl     5.738735    1.972946   21.047481    ( 0.0000,  0.0000,  0.0000)
  62 Cl     0.644658    7.183345   21.069182    ( 0.0000,  0.0000,  0.0000)
  63 Cl     1.802322    0.416323    8.082908    ( 0.0000,  0.0000,  0.0000)

Unit cell:
           periodic     x           y           z      points  spacing
  1. axis:    yes    7.851007    0.000000    0.000000    45     0.1655
  2. axis:    yes    2.617002    7.851007    0.000000    48     0.1636
  3. axis:    yes    0.000000    0.000000   30.683867   175     0.1753

  Lengths:   7.851007   8.275688  30.683867
  Angles:   90.000000  90.000000  71.565053

Effective grid spacing dv^(1/3) = 0.1710

     iter     time        total  log10-change:
                         energy  eigst   dens
iter:   1 15:19:07 -4453.715433  -1.55
iter:   2 15:20:00 -4454.558278  -2.41  -2.21
iter:   3 15:20:53 -4453.212081  -2.72  -2.11
iter:   4 15:21:46 -4452.827641  -3.71  -2.38
iter:   5 15:22:40 -4452.710418  -3.05  -2.53
iter:   6 15:23:33 -4452.670051c -3.66  -2.60
iter:   7 15:24:26 -4452.660144c -3.76  -2.80
iter:   8 15:25:19 -4452.639681c -3.68  -2.90
iter:   9 15:26:12 -4452.638052c -4.66  -3.17
iter:  10 15:27:05 -4452.633908c -5.14  -3.25
iter:  11 15:27:58 -4452.628810c -4.57  -3.31
iter:  12 15:28:52 -4452.626012c -4.93  -3.46
iter:  13 15:29:44 -4452.625797c -5.56  -3.72
iter:  14 15:30:37 -4452.625768c -5.68  -3.84
iter:  15 15:31:30 -4452.625663c -5.69  -4.02c
iter:  16 15:32:24 -4452.625624c -6.35  -4.16c
iter:  17 15:33:17 -4452.625785c -6.35  -4.29c
iter:  18 15:34:09 -4452.625555c -7.02  -4.35c
iter:  19 15:35:02 -4452.625507c -7.03  -4.52c
iter:  20 15:35:56 -4452.625568c -7.37  -4.65c
iter:  21 15:36:49 -4452.625551c -7.82c -4.87c

Converged after 21 iterations.

Dipole moment: (-23.618637, -40.239308, 0.045533) |e|*Ang

Energy contributions relative to reference atoms: (reference = -2556707.893378)

Kinetic:       +508.310395
Potential:     -535.737829
External:        +0.000000
XC:            -4424.223010
Entropy (-ST):   -0.637628
Local:           -0.656293
--------------------------
Free energy:   -4452.944365
Extrapolated:  -4452.625551

Showing only first 2 kpts
 Kpt  Band  Eigenvalues  Occupancy
  0   330     -0.97393    1.93908
  0   331     -0.82109    1.74694
  0   332     -0.74784    1.53689
  0   333     -0.61923    0.95676

  1   330     -0.89525    1.87091
  1   331     -0.79431    1.68161
  1   332     -0.63136    1.01735
  1   333     -0.44758    0.28296


Fermi level: -0.62789

No gap

Forces in eV/Ang:
  0 Cu    0.12047    0.04212   -0.44456
  1 Cu   -0.00557    0.02564    0.17407
  2 Cu    0.05854   -0.03165    0.11621
  3 Cu    0.00945   -0.01162    0.01559
  4 Cu    0.01268    0.01600   -0.04435
  5 Cu   -0.00168   -0.00568   -0.02921
  6 Cu    0.06880   -0.03109   -0.15768
  7 Cu    0.05169   -0.26716    0.08317
  8 Cu   -0.07786    0.23683    0.08479
  9 Cu   -0.00502   -0.05302   -0.03393
 10 Cu    0.00406   -0.00810   -0.05090
 11 Cu    0.13977    0.34434    0.04231
 12 Cu   -0.15758   -0.01628   -0.50706
 13 Cu   -0.05290   -0.03239    0.09604
 14 Cu   -0.02026    0.01041    0.04369
 15 Cu   -0.00986   -0.00229   -0.03328
 16 Cu    0.04564    0.05157   -0.31603
 17 Cu    0.01825    0.02396    0.20629
 18 Cu    0.01933    0.17080   -0.18165
 19 Cu   -0.01920   -0.18145   -0.16029
 20 Cu   -0.06159   -0.03824   -0.02629
 21 Cu    0.05937   -0.00257   -0.00368
 22 Cu    0.00950    0.02924    0.04175
 23 Cu   -0.01523   -0.02676   -0.00460
 24 Cu    0.01282    0.02938   -0.00079
 25 Cu   -0.01220    0.01624   -0.01141
 26 Cu   -0.10526    0.00871   -0.20835
 27 Cu    0.03939    0.01965   -0.01843
 28 Cu    0.02542    0.18785    0.17179
 29 Cu   -0.15501    0.46373   -0.15903
 30 Cu    0.15337   -0.47943    0.17624
 31 Cu   -0.02714    0.09126   -0.19738
 32 Cu    0.01468    0.00875    0.23321
 33 Cu    0.05823    0.06299    0.11737
 34 Cu    0.01001   -0.01521    0.00029
 35 Cu    0.00934    0.00714    0.03608
 36 Cu    0.02176   -0.01157   -0.03934
 37 Cu   -0.01256   -0.03346   -0.04078
 38 Cu   -0.05484    0.00550   -0.00205
 39 Cu    0.09280    0.00662   -0.14290
 40 Cu    0.16303   -0.03922    0.37504
 41 Cu   -0.02590   -0.19407    0.17176
 42 Cu   -0.14061   -0.34806   -0.04446
 43 Cu   -0.07315    0.29009   -0.09148
 44 Cu   -0.08547    0.05089    0.13147
 45 Cu    0.00016    0.00987    0.04924
 46 Cu   -0.01046   -0.01373    0.04164
 47 Cu   -0.00826    0.00685   -0.01323
 48 Cu    0.01885    0.03246   -0.01525
 49 Cu   -0.01500   -0.04670   -0.24223
 50 Cu   -0.11142   -0.32736    0.04265
 51 Cu    0.11465   -0.16189   -0.21275
 52 Cu   -0.00044    0.00867    0.02581
 53 Cu   -0.07866    0.03132   -0.15880
 54 Cl   -0.00473    0.06500   -0.38411
 55 Cl   -0.09091   -0.07907    0.38477
 56 Cl    1.82105   -1.83835   -0.26848
 57 Cl    1.66516   -0.04183    0.22276
 58 Cl   -1.75356   -0.09663    0.19220
 59 Cl   -2.18032    2.19108    0.46897
 60 Cl   -1.67158    0.00340   -0.22749
 61 Cl   -1.81508    2.04681    0.27823
 62 Cl    1.89456   -2.44512   -0.09280
 63 Cl    2.12325    0.28639    0.52655

System changes: positions 

Initializing position-dependent things.

Density initialized from wave functions
                                     
                                     
                                     
                                     
            Cl          Cl           
                Cl                   
                                     
         ClCu    Cu  Cl Cu           
               Cu    Cu     Cu       
         Cu    Cu     Cu             
             Cu     Cu    Cu         
       Cu     Cu    Cu               
           Cu    CCu    Cu           
         Cu    Cu    CCu    Cu       
                                     
       Cu    CCu    Cu    Cu         
           Cu    CCu    Cu           
               Cu    Cu     Cu       
         Cu     Cu    Cu             
       Cu    Cu     Cu    Cu         
              Cu    Cu               
           Cu Cl  Cu    CuCl         
                   Cl                
                                     
           Cl          Cl            
                                     
                                     
                                     
                                     

Positions:
   0 Cu     1.862888    1.851971   10.017854    ( 0.0000,  0.0000,  0.0000)
   1 Cu     0.568949    0.516906   11.870398    ( 0.0000,  0.0000,  0.0000)
   2 Cu     3.214704    0.545365   11.834055    ( 0.0000,  0.0000,  0.0000)
   3 Cu     1.885409    1.835286   13.700821    ( 0.0000,  0.0000,  0.0000)
   4 Cu     0.580079    0.528030   15.558662    ( 0.0000,  0.0000,  0.0000)
   5 Cu     3.185454    0.522110   15.554541    ( 0.0000,  0.0000,  0.0000)
   6 Cu     1.908318    1.850490   17.413597    ( 0.0000,  0.0000,  0.0000)
   7 Cu     0.588944    0.526835   19.192832    ( 0.0000,  0.0000,  0.0000)
   8 Cu     3.173027    0.523518   19.194512    ( 0.0000,  0.0000,  0.0000)
   9 Cu     0.573746    3.143822   11.842677    ( 0.0000,  0.0000,  0.0000)
  10 Cu     0.575777    3.142378   15.549367    ( 0.0000,  0.0000,  0.0000)
  11 Cu     0.560197    3.192350   19.192586    ( 0.0000,  0.0000,  0.0000)
  12 Cu     7.133969    1.824738   10.015233    ( 0.0000,  0.0000,  0.0000)
  13 Cu     5.790750    0.535002   11.825121    ( 0.0000,  0.0000,  0.0000)
  14 Cu     7.112959    1.832126   13.698375    ( 0.0000,  0.0000,  0.0000)
  15 Cu     5.808265    0.523901   15.555058    ( 0.0000,  0.0000,  0.0000)
  16 Cu     7.109959    1.824098   17.373797    ( 0.0000,  0.0000,  0.0000)
  17 Cu     5.812241    0.568874   19.049525    ( 0.0000,  0.0000,  0.0000)
  18 Cu     4.494514    1.776599    9.918621    ( 0.0000,  0.0000,  0.0000)
  19 Cu     4.494986    4.509184    9.919193    ( 0.0000,  0.0000,  0.0000)
  20 Cu     3.201990    3.146528   11.827183    ( 0.0000,  0.0000,  0.0000)
  21 Cu     5.797280    3.140934   11.828955    ( 0.0000,  0.0000,  0.0000)
  22 Cu     4.501792    1.834856   13.709635    ( 0.0000,  0.0000,  0.0000)
  23 Cu     4.498903    4.449901   13.700168    ( 0.0000,  0.0000,  0.0000)
  24 Cu     3.192235    3.144971   15.549717    ( 0.0000,  0.0000,  0.0000)
  25 Cu     5.806006    3.143001   15.551445    ( 0.0000,  0.0000,  0.0000)
  26 Cu     4.480664    1.843227   17.421319    ( 0.0000,  0.0000,  0.0000)
  27 Cu     4.489544    4.448438   17.422979    ( 0.0000,  0.0000,  0.0000)
  28 Cu     3.195890    3.085113   19.330985    ( 0.0000,  0.0000,  0.0000)
  29 Cu     5.824666    3.164548   19.200721    ( 0.0000,  0.0000,  0.0000)
  30 Cu     1.867280    4.432201   10.044789    ( 0.0000,  0.0000,  0.0000)
  31 Cu     1.883100    7.089159   10.084960    ( 0.0000,  0.0000,  0.0000)
  32 Cu     0.581087    5.770513   11.876030    ( 0.0000,  0.0000,  0.0000)
  33 Cu     3.210626    5.751449   11.829752    ( 0.0000,  0.0000,  0.0000)
  34 Cu     1.884963    4.451491   13.698261    ( 0.0000,  0.0000,  0.0000)
  35 Cu     1.882776    7.070927   13.696628    ( 0.0000,  0.0000,  0.0000)
  36 Cu     0.578313    5.762433   15.553095    ( 0.0000,  0.0000,  0.0000)
  37 Cu     3.189114    5.759240   15.541120    ( 0.0000,  0.0000,  0.0000)
  38 Cu     1.893995    4.454365   17.421887    ( 0.0000,  0.0000,  0.0000)
  39 Cu     1.902743    7.058969   17.423062    ( 0.0000,  0.0000,  0.0000)
  40 Cu     0.557983    5.760338   19.224722    ( 0.0000,  0.0000,  0.0000)
  41 Cu     3.195968    5.816380   19.328770    ( 0.0000,  0.0000,  0.0000)
  42 Cu     7.130822    4.405141   10.057727    ( 0.0000,  0.0000,  0.0000)
  43 Cu     7.102152    7.070920   10.054826    ( 0.0000,  0.0000,  0.0000)
  44 Cu     5.783186    5.744586   11.836987    ( 0.0000,  0.0000,  0.0000)
  45 Cu     7.115880    4.452011   13.701048    ( 0.0000,  0.0000,  0.0000)
  46 Cu     7.111403    7.066573   13.691734    ( 0.0000,  0.0000,  0.0000)
  47 Cu     5.806130    5.758956   15.550765    ( 0.0000,  0.0000,  0.0000)
  48 Cu     7.116857    4.450876   17.407932    ( 0.0000,  0.0000,  0.0000)
  49 Cu     7.121509    7.077887   17.375166    ( 0.0000,  0.0000,  0.0000)
  50 Cu     5.828533    5.708004   19.194871    ( 0.0000,  0.0000,  0.0000)
  51 Cu     4.516917    7.093879   10.029131    ( 0.0000,  0.0000,  0.0000)
  52 Cu     4.505721    7.072657   13.696318    ( 0.0000,  0.0000,  0.0000)
  53 Cu     4.474944    7.049202   17.412585    ( 0.0000,  0.0000,  0.0000)
  54 Cl     3.111440    4.457933   21.176710    ( 0.0000,  0.0000,  0.0000)
  55 Cl     4.575467    3.137713    8.076986    ( 0.0000,  0.0000,  0.0000)
  56 Cl     2.037782    5.533812    8.198928    ( 0.0000,  0.0000,  0.0000)
  57 Cl     0.734114    1.854463   21.054039    ( 0.0000,  0.0000,  0.0000)
  58 Cl     5.670261    7.018153   21.056542    ( 0.0000,  0.0000,  0.0000)
  59 Cl     6.893346    0.606833    8.042670    ( 0.0000,  0.0000,  0.0000)
  60 Cl     6.958896    5.738898    8.198851    ( 0.0000,  0.0000,  0.0000)
  61 Cl     5.653131    2.118984   21.081106    ( 0.0000,  0.0000,  0.0000)
  62 Cl     0.728189    7.012796   21.131915    ( 0.0000,  0.0000,  0.0000)
  63 Cl     1.904724    0.426909    8.095805    ( 0.0000,  0.0000,  0.0000)

Unit cell:
           periodic     x           y           z      points  spacing
  1. axis:    yes    7.851007    0.000000    0.000000    45     0.1655
  2. axis:    yes    2.617002    7.851007    0.000000    48     0.1636
  3. axis:    yes    0.000000    0.000000   30.683867   175     0.1753

  Lengths:   7.851007   8.275688  30.683867
  Angles:   90.000000  90.000000  71.565053

Effective grid spacing dv^(1/3) = 0.1710

     iter     time        total  log10-change:
                         energy  eigst   dens
iter:   1 15:38:12 -4455.278666  -1.71
iter:   2 15:39:05 -4455.624795  -2.59  -2.28
iter:   3 15:39:59 -4454.844105  -2.89  -2.20
iter:   4 15:40:52 -4454.525156  -3.63  -2.42
iter:   5 15:41:45 -4454.467995  -3.09  -2.62
iter:   6 15:42:38 -4454.453635c -3.68  -2.80
iter:   7 15:43:31 -4454.441153c -4.33  -2.94
iter:   8 15:44:24 -4454.432538c -3.97  -3.04
iter:   9 15:45:17 -4454.428478c -4.43  -3.28
iter:  10 15:46:11 -4454.426842c -5.10  -3.43
iter:  11 15:47:04 -4454.425587c -5.20  -3.45
iter:  12 15:47:57 -4454.425421c -5.52  -3.65
iter:  13 15:48:50 -4454.425459c -5.73  -3.72
iter:  14 15:49:46 -4454.424821c -5.55  -3.83
iter:  15 15:50:39 -4454.424572c -5.88  -4.09c
iter:  16 15:51:33 -4454.424483c -6.64  -4.23c
iter:  17 15:52:26 -4454.424543c -6.26  -4.30c
iter:  18 15:53:18 -4454.424516c -7.50c -4.44c

Converged after 18 iterations.

Dipole moment: (-37.970880, -39.293084, 0.000700) |e|*Ang

Energy contributions relative to reference atoms: (reference = -2556707.893378)

Kinetic:       +494.060269
Potential:     -525.515000
External:        +0.000000
XC:            -4422.017705
Entropy (-ST):   -0.596630
Local:           -0.653765
--------------------------
Free energy:   -4454.722831
Extrapolated:  -4454.424516

Showing only first 2 kpts
 Kpt  Band  Eigenvalues  Occupancy
  0   330     -1.13029    1.96799
  0   331     -0.91025    1.74392
  0   332     -0.82592    1.49113
  0   333     -0.70467    0.93142

  1   330     -0.97408    1.85604
  1   331     -0.87648    1.65863
  1   332     -0.72166    1.01624
  1   333     -0.52124    0.24442


Fermi level: -0.71841

No gap

Forces in eV/Ang:
  0 Cu    0.06703   -0.03469   -0.39265
  1 Cu    0.03940    0.07087    0.10335
  2 Cu    0.01623    0.00520    0.11383
  3 Cu    0.01155   -0.00005    0.01472
  4 Cu    0.01655    0.01124   -0.06231
  5 Cu   -0.00749   -0.00370   -0.04615
  6 Cu    0.02406    0.00584   -0.14206
  7 Cu   -0.05288   -0.01307    0.31119
  8 Cu    0.03465   -0.03208    0.32869
  9 Cu    0.00306   -0.08823   -0.01658
 10 Cu    0.00973    0.00464   -0.05647
 11 Cu    0.07193    0.00441    0.25724
 12 Cu   -0.09436   -0.00558   -0.42384
 13 Cu   -0.05933    0.02587    0.11860
 14 Cu   -0.02119    0.01617    0.03084
 15 Cu   -0.00756   -0.00487   -0.05075
 16 Cu    0.17267    0.16911   -0.31092
 17 Cu    0.00544   -0.23834    1.32593
 18 Cu    0.02718    0.11791   -0.10616
 19 Cu   -0.01652   -0.09696   -0.09739
 20 Cu   -0.02791   -0.05098    0.00766
 21 Cu    0.02078   -0.03099    0.03311
 22 Cu    0.00779    0.02915    0.02068
 23 Cu   -0.00981   -0.02875   -0.00807
 24 Cu    0.00730    0.03156   -0.00282
 25 Cu   -0.01369    0.02535   -0.01218
 26 Cu   -0.19534    0.12844   -0.29994
 27 Cu   -0.02025    0.00978   -0.08572
 28 Cu    0.02981    0.13300    0.13923
 29 Cu   -0.03008    0.34761   -0.26785
 30 Cu    0.02085   -0.41799    0.35485
 31 Cu   -0.03423   -0.07501   -0.74480
 32 Cu   -0.01856   -0.02751    0.12426
 33 Cu    0.06473    0.03917    0.09081
 34 Cu    0.01145   -0.02431   -0.00089
 35 Cu    0.00898    0.00834    0.04367
 36 Cu    0.02393   -0.01884   -0.03747
 37 Cu   -0.00930   -0.03449   -0.02961
 38 Cu   -0.01276    0.03077   -0.04784
 39 Cu    0.12237   -0.08267   -0.18886
 40 Cu    0.09799    0.07322    0.35355
 41 Cu   -0.02778   -0.12718    0.13116
 42 Cu   -0.07256   -0.04388   -0.24462
 43 Cu    0.02756    0.01954   -0.28640
 44 Cu   -0.05550    0.03002    0.09483
 45 Cu   -0.00593   -0.00012    0.05070
 46 Cu   -0.01367   -0.00852    0.05359
 47 Cu   -0.01314   -0.00283   -0.02722
 48 Cu    0.03515    0.04498   -0.07767
 49 Cu   -0.08497   -0.12707   -0.18296
 50 Cu   -0.04992    0.02116    0.24075
 51 Cu    0.01431   -0.15187   -0.17059
 52 Cu    0.00294    0.00635    0.03312
 53 Cu   -0.03171   -0.00297   -0.14096
 54 Cl   -0.01287    0.05103   -0.26748
 55 Cl   -0.11254   -0.05601    0.23793
 56 Cl    1.10431   -0.58671   -0.22964
 57 Cl    0.91991   -0.02055   -0.19629
 58 Cl   -1.03853   -0.00902   -0.23168
 59 Cl   -1.22639    1.02168    0.73487
 60 Cl   -0.92049   -0.02579    0.17101
 61 Cl   -1.05797    0.48790    0.12717
 62 Cl    1.12472   -0.79903   -0.66827
 63 Cl    1.20812    0.31778    0.47433

System changes: positions 

Initializing position-dependent things.

Density initialized from wave functions
                                     
                                     
                                     
                                     
            Cl          Cl           
                                     
                Cl                   
         ClCu    Cu  Cl Cu           
               Cu    Cu     Cu       
         Cu    Cu     Cu             
       Cu    CCu    Cu    Cu         
                                     
           Cu    CCu    Cu           
         Cu    Cu    CCu    Cu       
                                     
       Cu    CCu    Cu    Cu         
           Cu    CCu    Cu           
                            Cu       
         Cu    Cu    CCu             
             Cu     Cu    Cu         
       Cu     Cu    Cu               
           Cu Cl  Cu    CuCl         
                   Cl                
                                     
           Cl          Cl            
                                     
                                     
                                     
                                     

Positions:
   0 Cu     1.870528    1.848326    9.973843    ( 0.0000,  0.0000,  0.0000)
   1 Cu     0.573250    0.524725   11.882153    ( 0.0000,  0.0000,  0.0000)
   2 Cu     3.216627    0.545860   11.846804    ( 0.0000,  0.0000,  0.0000)
   3 Cu     1.886695    1.835254   13.702475    ( 0.0000,  0.0000,  0.0000)
   4 Cu     0.581927    0.529299   15.551717    ( 0.0000,  0.0000,  0.0000)
   5 Cu     3.184625    0.521692   15.549403    ( 0.0000,  0.0000,  0.0000)
   6 Cu     1.911126    1.851056   17.397648    ( 0.0000,  0.0000,  0.0000)
   7 Cu     0.583348    0.524693   19.227014    ( 0.0000,  0.0000,  0.0000)
   8 Cu     3.176561    0.520658   19.230591    ( 0.0000,  0.0000,  0.0000)
   9 Cu     0.574069    3.134036   11.840766    ( 0.0000,  0.0000,  0.0000)
  10 Cu     0.576852    3.142864   15.543055    ( 0.0000,  0.0000,  0.0000)
  11 Cu     0.568436    3.193759   19.220801    ( 0.0000,  0.0000,  0.0000)
  12 Cu     7.123262    1.824181    9.967739    ( 0.0000,  0.0000,  0.0000)
  13 Cu     5.784117    0.537753   11.838347    ( 0.0000,  0.0000,  0.0000)
  14 Cu     7.110589    1.833921   13.701862    ( 0.0000,  0.0000,  0.0000)
  15 Cu     5.807414    0.523362   15.549406    ( 0.0000,  0.0000,  0.0000)
  16 Cu     7.129016    1.842764   17.338910    ( 0.0000,  0.0000,  0.0000)
  17 Cu     5.812930    0.543316   19.193008    ( 0.0000,  0.0000,  0.0000)
  18 Cu     4.497533    1.789921    9.906599    ( 0.0000,  0.0000,  0.0000)
  19 Cu     4.493134    4.498129    9.908174    ( 0.0000,  0.0000,  0.0000)
  20 Cu     3.198787    3.140855   11.827959    ( 0.0000,  0.0000,  0.0000)
  21 Cu     5.799697    3.137534   11.832572    ( 0.0000,  0.0000,  0.0000)
  22 Cu     4.502669    1.838118   13.712008    ( 0.0000,  0.0000,  0.0000)
  23 Cu     4.497789    4.446689   13.699270    ( 0.0000,  0.0000,  0.0000)
  24 Cu     3.193068    3.148501   15.549396    ( 0.0000,  0.0000,  0.0000)
  25 Cu     5.804476    3.145812   15.550080    ( 0.0000,  0.0000,  0.0000)
  26 Cu     4.458972    1.857338   17.387919    ( 0.0000,  0.0000,  0.0000)
  27 Cu     4.487420    4.449555   17.413542    ( 0.0000,  0.0000,  0.0000)
  28 Cu     3.199207    3.100137   19.346605    ( 0.0000,  0.0000,  0.0000)
  29 Cu     5.821016    3.203782   19.170881    ( 0.0000,  0.0000,  0.0000)
  30 Cu     1.869919    4.385219   10.084145    ( 0.0000,  0.0000,  0.0000)
  31 Cu     1.879302    7.081284   10.003529    ( 0.0000,  0.0000,  0.0000)
  32 Cu     0.579090    5.767524   11.890232    ( 0.0000,  0.0000,  0.0000)
  33 Cu     3.217859    5.755894   11.839987    ( 0.0000,  0.0000,  0.0000)
  34 Cu     1.886242    4.448795   13.698158    ( 0.0000,  0.0000,  0.0000)
  35 Cu     1.883783    7.071856   13.701512    ( 0.0000,  0.0000,  0.0000)
  36 Cu     0.580986    5.760346   15.548889    ( 0.0000,  0.0000,  0.0000)
  37 Cu     3.188063    5.755379   15.537763    ( 0.0000,  0.0000,  0.0000)
  38 Cu     1.892465    4.457754   17.416638    ( 0.0000,  0.0000,  0.0000)
  39 Cu     1.916399    7.049920   17.402010    ( 0.0000,  0.0000,  0.0000)
  40 Cu     0.569102    5.768200   19.264217    ( 0.0000,  0.0000,  0.0000)
  41 Cu     3.192864    5.801983   19.343508    ( 0.0000,  0.0000,  0.0000)
  42 Cu     7.122507    4.399416   10.030890    ( 0.0000,  0.0000,  0.0000)
  43 Cu     7.104944    7.073835   10.023327    ( 0.0000,  0.0000,  0.0000)
  44 Cu     5.776899    5.747994   11.847694    ( 0.0000,  0.0000,  0.0000)
  45 Cu     7.115234    4.452025   13.706716    ( 0.0000,  0.0000,  0.0000)
  46 Cu     7.109877    7.065606   13.697705    ( 0.0000,  0.0000,  0.0000)
  47 Cu     5.804673    5.758665   15.547745    ( 0.0000,  0.0000,  0.0000)
  48 Cu     7.120753    4.455879   17.399405    ( 0.0000,  0.0000,  0.0000)
  49 Cu     7.112148    7.063852   17.354495    ( 0.0000,  0.0000,  0.0000)
  50 Cu     5.822785    5.709463   19.221304    ( 0.0000,  0.0000,  0.0000)
  51 Cu     4.518781    7.076820   10.010012    ( 0.0000,  0.0000,  0.0000)
  52 Cu     4.506044    7.073370   13.700013    ( 0.0000,  0.0000,  0.0000)
  53 Cu     4.471274    7.048949   17.396752    ( 0.0000,  0.0000,  0.0000)
  54 Cl     3.110021    4.463670   21.146573    ( 0.0000,  0.0000,  0.0000)
  55 Cl     4.562910    3.131391    8.103903    ( 0.0000,  0.0000,  0.0000)
  56 Cl     2.163446    5.464214    8.172745    ( 0.0000,  0.0000,  0.0000)
  57 Cl     0.839405    1.852200   21.033247    ( 0.0000,  0.0000,  0.0000)
  58 Cl     5.551896    7.016725   21.031849    ( 0.0000,  0.0000,  0.0000)
  59 Cl     6.753586    0.724699    8.123755    ( 0.0000,  0.0000,  0.0000)
  60 Cl     6.853577    5.736002    8.216881    ( 0.0000,  0.0000,  0.0000)
  61 Cl     5.532589    2.178799   21.096521    ( 0.0000,  0.0000,  0.0000)
  62 Cl     0.856039    6.917558   21.060405    ( 0.0000,  0.0000,  0.0000)
  63 Cl     2.042558    0.462516    8.148838    ( 0.0000,  0.0000,  0.0000)

Unit cell:
           periodic     x           y           z      points  spacing
  1. axis:    yes    7.851007    0.000000    0.000000    45     0.1655
  2. axis:    yes    2.617002    7.851007    0.000000    48     0.1636
  3. axis:    yes    0.000000    0.000000   30.683867   175     0.1753

  Lengths:   7.851007   8.275688  30.683867
  Angles:   90.000000  90.000000  71.565053

Effective grid spacing dv^(1/3) = 0.1710

     iter     time        total  log10-change:
                         energy  eigst   dens
iter:   1 15:54:42 -4461.340768  -1.36
iter:   2 15:55:35 -4463.877424  -1.74  -1.78
iter:   3 15:56:28 -4459.373301  -1.95  -1.77
iter:   4 15:57:21 -4456.181585  -2.51  -1.99
iter:   5 15:58:15 -4455.733297  -3.17  -2.29
iter:   6 15:59:08 -4455.666422  -3.34  -2.47
iter:   7 16:00:01 -4455.616133c -3.15  -2.62
iter:   8 16:01:03 -4455.591394c -3.90  -2.81
iter:   9 16:01:59 -4455.587613c -3.58  -2.89
iter:  10 16:02:53 -4455.581015c -4.54  -3.16
iter:  11 16:03:47 -4455.573172c -4.70  -3.17
iter:  12 16:04:41 -4455.571918c -4.52  -3.33
iter:  13 16:05:36 -4455.569598c -5.04  -3.48
iter:  14 16:06:30 -4455.569348c -5.66  -3.67
iter:  15 16:07:24 -4455.569051c -5.82  -3.72
iter:  16 16:08:18 -4455.569071c -5.96  -3.84
iter:  17 16:09:13 -4455.568929c -6.58  -4.03c
iter:  18 16:10:07 -4455.568887c -6.90  -4.20c
iter:  19 16:11:00 -4455.568858c -7.01  -4.27c
iter:  20 16:11:54 -4455.568856c -7.09  -4.35c
iter:  21 16:12:48 -4455.568855c -7.93c -4.46c

Converged after 21 iterations.

Dipole moment: (-43.571271, -37.618133, 0.017093) |e|*Ang

Energy contributions relative to reference atoms: (reference = -2556707.893378)

Kinetic:       +499.273738
Potential:     -530.488187
External:        +0.000000
XC:            -4423.419345
Entropy (-ST):   -0.577109
Local:           -0.646506
--------------------------
Free energy:   -4455.857409
Extrapolated:  -4455.568855

Showing only first 2 kpts
 Kpt  Band  Eigenvalues  Occupancy
  0   330     -1.02019    1.97123
  0   331     -0.78531    1.73482
  0   332     -0.70138    1.47732
  0   333     -0.58263    0.92590

  1   330     -0.83522    1.83017
  1   331     -0.74426    1.62545
  1   332     -0.60112    1.01818
  1   333     -0.39269    0.22853


Fermi level: -0.59748

No gap

Forces in eV/Ang:
  0 Cu   -0.00233    0.06649    0.00653
  1 Cu   -0.03510   -0.00852   -0.11867
  2 Cu    0.00054   -0.01772   -0.01036
  3 Cu    0.01089    0.01426    0.01961
  4 Cu    0.01276   -0.00402   -0.06554
  5 Cu   -0.00654   -0.00614   -0.05370
  6 Cu   -0.01634   -0.02532    0.03237
  7 Cu   -0.08002   -0.11418   -0.11789
  8 Cu    0.07297    0.15748   -0.09584
  9 Cu   -0.08514   -0.11825   -0.05724
 10 Cu    0.03413    0.03726   -0.07802
 11 Cu   -0.02815    0.10127   -0.03174
 12 Cu    0.14244    0.43176    0.52398
 13 Cu    0.03212   -0.06842   -0.06546
 14 Cu   -0.01220    0.01353    0.01497
 15 Cu   -0.00365   -0.00344   -0.01208
 16 Cu   -0.07408   -0.10047    0.15016
 17 Cu   -0.02504    0.19467    0.34279
 18 Cu   -0.00840   -0.06715    0.20969
 19 Cu   -0.05013    0.05342    0.12588
 20 Cu    0.03842   -0.09645    0.05204
 21 Cu    0.03755   -0.00594   -0.00776
 22 Cu    0.00032    0.02146    0.01762
 23 Cu   -0.00449   -0.01883   -0.00517
 24 Cu   -0.02304    0.03795   -0.05322
 25 Cu   -0.01086    0.03348   -0.02881
 26 Cu    0.10016   -0.16619    0.14144
 27 Cu   -0.04106    0.08767   -0.06473
 28 Cu    0.06039   -0.09331   -0.15717
 29 Cu    0.05382   -0.07453   -0.07796
 30 Cu   -0.04509    0.04205   -0.04630
 31 Cu    0.00495   -0.21816   -0.32796
 32 Cu   -0.00260    0.03562   -0.06711
 33 Cu   -0.02858    0.08969   -0.05080
 34 Cu    0.00932   -0.02147   -0.02083
 35 Cu    0.00586    0.00482    0.01669
 36 Cu    0.02053   -0.01329   -0.04118
 37 Cu    0.00300   -0.02527   -0.04946
 38 Cu   -0.03605   -0.00735    0.01291
 39 Cu   -0.05937    0.12492    0.07799
 40 Cu   -0.14210   -0.53722   -0.69640
 41 Cu    0.02770    0.08148   -0.22954
 42 Cu    0.02460   -0.09283    0.02152
 43 Cu    0.07589    0.09509    0.05979
 44 Cu    0.01933    0.00947   -0.00668
 45 Cu   -0.00783   -0.01284    0.01733
 46 Cu   -0.00380   -0.00649    0.03829
 47 Cu   -0.02282   -0.01979   -0.04988
 48 Cu    0.08684    0.08849    0.04584
 49 Cu    0.06036    0.06899    0.12230
 50 Cu    0.03819   -0.04537   -0.07993
 51 Cu   -0.06701   -0.23732    0.16849
 52 Cu   -0.00373    0.00107    0.02947
 53 Cu    0.00262    0.03388    0.01180
 54 Cl   -0.01278    0.00241    0.23699
 55 Cl   -0.13871    0.04269   -0.20498
 56 Cl    0.44342   -0.16769    0.09250
 57 Cl    0.32670    0.08780    0.15989
 58 Cl   -0.35872   -0.05033    0.22500
 59 Cl   -0.46195   -0.02381   -0.17464
 60 Cl   -0.30632   -0.10874   -0.13774
 61 Cl   -0.44784    0.10284   -0.07614
 62 Cl    0.52144    0.08970    0.44494
 63 Cl    0.38300    0.33172   -0.10312

System changes: positions 

Initializing position-dependent things.

Density initialized from wave functions
                                    
                                    
                                    
                                    
            Cl         Cl           
                Cl                  
                    Cl              
         Clu     Cu    Cu           
         Cu   CCu   CuCu   Cu       
                                    
       Cu    CCu   CCu   Cu         
          CCu   CCu    CCu          
                                    
         Cu   CCu   CCu    Cu       
       Cu    CCu   CCu   Cu         
                                    
          CCu    CCu   CCu          
         Cu   CCu   CCu    Cu       
                                    
       Cu   CuCu   CCu   Cu         
           Cu    Cu     Cul         
              Cl                    
                  Cl                
           Cl         Cl            
                                    
                                    
                                    
                                    

Positions:
   0 Cu     1.872346    1.854718    9.961532    ( 0.0000,  0.0000,  0.0000)
   1 Cu     0.570564    0.526221   11.871460    ( 0.0000,  0.0000,  0.0000)
   2 Cu     3.217117    0.544048   11.849388    ( 0.0000,  0.0000,  0.0000)
   3 Cu     1.888369    1.836958   13.705265    ( 0.0000,  0.0000,  0.0000)
   4 Cu     0.583986    0.529192   15.541895    ( 0.0000,  0.0000,  0.0000)
   5 Cu     3.183596    0.520850   15.541517    ( 0.0000,  0.0000,  0.0000)
   6 Cu     1.909884    1.848372   17.396748    ( 0.0000,  0.0000,  0.0000)
   7 Cu     0.571818    0.511585   19.224294    ( 0.0000,  0.0000,  0.0000)
   8 Cu     3.186677    0.537288   19.231117    ( 0.0000,  0.0000,  0.0000)
   9 Cu     0.564187    3.117085   11.833544    ( 0.0000,  0.0000,  0.0000)
  10 Cu     0.581205    3.147435   15.531984    ( 0.0000,  0.0000,  0.0000)
  11 Cu     0.567328    3.204799   19.226321    ( 0.0000,  0.0000,  0.0000)
  12 Cu     7.137005    1.874665   10.015192    ( 0.0000,  0.0000,  0.0000)
  13 Cu     5.785898    0.530738   11.834678    ( 0.0000,  0.0000,  0.0000)
  14 Cu     7.108442    1.836069   13.704616    ( 0.0000,  0.0000,  0.0000)
  15 Cu     5.806738    0.522788   15.546256    ( 0.0000,  0.0000,  0.0000)
  16 Cu     7.126388    1.836906   17.346244    ( 0.0000,  0.0000,  0.0000)
  17 Cu     5.810082    0.556980   19.283127    ( 0.0000,  0.0000,  0.0000)
  18 Cu     4.497481    1.785840    9.927843    ( 0.0000,  0.0000,  0.0000)
  19 Cu     4.486692    4.501384    9.919839    ( 0.0000,  0.0000,  0.0000)
  20 Cu     3.202455    3.127776   11.834422    ( 0.0000,  0.0000,  0.0000)
  21 Cu     5.804706    3.135723   11.832866    ( 0.0000,  0.0000,  0.0000)
  22 Cu     4.502963    1.841617   13.714707    ( 0.0000,  0.0000,  0.0000)
  23 Cu     4.496950    4.443507   13.698385    ( 0.0000,  0.0000,  0.0000)
  24 Cu     3.190587    3.154020   15.543053    ( 0.0000,  0.0000,  0.0000)
  25 Cu     5.802739    3.150625   15.546287    ( 0.0000,  0.0000,  0.0000)
  26 Cu     4.464014    1.842397   17.394309    ( 0.0000,  0.0000,  0.0000)
  27 Cu     4.481759    4.460162   17.402891    ( 0.0000,  0.0000,  0.0000)
  28 Cu     3.207325    3.093472   19.332755    ( 0.0000,  0.0000,  0.0000)
  29 Cu     5.826647    3.206301   19.152596    ( 0.0000,  0.0000,  0.0000)
  30 Cu     1.864982    4.376382   10.090984    ( 0.0000,  0.0000,  0.0000)
  31 Cu     1.878700    7.052558    9.937913    ( 0.0000,  0.0000,  0.0000)
  32 Cu     0.578075    5.770689   11.886180    ( 0.0000,  0.0000,  0.0000)
  33 Cu     3.216681    5.767679   11.836978    ( 0.0000,  0.0000,  0.0000)
  34 Cu     1.887724    4.445431   13.695683    ( 0.0000,  0.0000,  0.0000)
  35 Cu     1.884770    7.072707   13.704940    ( 0.0000,  0.0000,  0.0000)
  36 Cu     0.584206    5.758128   15.542807    ( 0.0000,  0.0000,  0.0000)
  37 Cu     3.188115    5.751255   15.531006    ( 0.0000,  0.0000,  0.0000)
  38 Cu     1.887914    4.457982   17.416436    ( 0.0000,  0.0000,  0.0000)
  39 Cu     1.913563    7.061609   17.404758    ( 0.0000,  0.0000,  0.0000)
  40 Cu     0.555515    5.707879   19.194290    ( 0.0000,  0.0000,  0.0000)
  41 Cu     3.195183    5.807478   19.320859    ( 0.0000,  0.0000,  0.0000)
  42 Cu     7.123182    4.387934   10.024628    ( 0.0000,  0.0000,  0.0000)
  43 Cu     7.115110    7.084862   10.020149    ( 0.0000,  0.0000,  0.0000)
  44 Cu     5.777395    5.750060   11.849981    ( 0.0000,  0.0000,  0.0000)
  45 Cu     7.114097    4.450482   13.710458    ( 0.0000,  0.0000,  0.0000)
  46 Cu     7.108968    7.064572   13.704029    ( 0.0000,  0.0000,  0.0000)
  47 Cu     5.801535    5.756216   15.540941    ( 0.0000,  0.0000,  0.0000)
  48 Cu     7.132179    4.467821   17.402009    ( 0.0000,  0.0000,  0.0000)
  49 Cu     7.116232    7.067498   17.362955    ( 0.0000,  0.0000,  0.0000)
  50 Cu     5.825780    5.705842   19.220537    ( 0.0000,  0.0000,  0.0000)
  51 Cu     4.511096    7.043910   10.024131    ( 0.0000,  0.0000,  0.0000)
  52 Cu     4.505711    7.073706   13.704598    ( 0.0000,  0.0000,  0.0000)
  53 Cu     4.470654    7.052743   17.393481    ( 0.0000,  0.0000,  0.0000)
  54 Cl     3.108064    4.465635   21.165690    ( 0.0000,  0.0000,  0.0000)
  55 Cl     4.542796    3.134591    8.087463    ( 0.0000,  0.0000,  0.0000)
  56 Cl     2.250265    5.429192    8.176456    ( 0.0000,  0.0000,  0.0000)
  57 Cl     0.906039    1.861791   21.044167    ( 0.0000,  0.0000,  0.0000)
  58 Cl     5.477304    7.010969   21.049170    ( 0.0000,  0.0000,  0.0000)
  59 Cl     6.660978    0.752238    8.129123    ( 0.0000,  0.0000,  0.0000)
  60 Cl     6.789281    5.722368    8.207644    ( 0.0000,  0.0000,  0.0000)
  61 Cl     5.446873    2.201482   21.090528    ( 0.0000,  0.0000,  0.0000)
  62 Cl     0.952819    6.907747   21.086696    ( 0.0000,  0.0000,  0.0000)
  63 Cl     2.125144    0.512101    8.152664    ( 0.0000,  0.0000,  0.0000)

Unit cell:
           periodic     x           y           z      points  spacing
  1. axis:    yes    7.851007    0.000000    0.000000    45     0.1655
  2. axis:    yes    2.617002    7.851007    0.000000    48     0.1636
  3. axis:    yes    0.000000    0.000000   30.683867   175     0.1753

  Lengths:   7.851007   8.275688  30.683867
  Angles:   90.000000  90.000000  71.565053

Effective grid spacing dv^(1/3) = 0.1710

     iter     time        total  log10-change:
                         energy  eigst   dens
iter:   1 16:14:13 -4456.946645  -1.83
iter:   2 16:15:07 -4456.760394  -2.58  -2.26
iter:   3 16:16:02 -4456.047655  -3.20  -2.30
iter:   4 16:16:55 -4455.925370  -3.50  -2.56
iter:   5 16:17:51 -4455.898889c -3.46  -2.76
iter:   6 16:18:45 -4455.888409c -4.04  -2.99
iter:   7 16:19:39 -4455.891175c -3.92  -3.07
iter:   8 16:20:34 -4455.886424c -4.78  -3.28
iter:   9 16:21:28 -4455.882183c -4.69  -3.37
iter:  10 16:22:22 -4455.880701c -5.26  -3.46
iter:  11 16:23:16 -4455.880475c -5.66  -3.61
iter:  12 16:24:10 -4455.879954c -5.29  -3.71
iter:  13 16:25:05 -4455.879911c -6.04  -3.93
iter:  14 16:26:00 -4455.879734c -6.28  -4.09c
iter:  15 16:26:52 -4455.879755c -6.51  -4.25c
iter:  16 16:27:47 -4455.879752c -6.82  -4.27c
iter:  17 16:28:41 -4455.879730c -7.48c -4.35c

Converged after 17 iterations.

Dipole moment: (-42.097910, -36.187105, -0.009383) |e|*Ang

Energy contributions relative to reference atoms: (reference = -2556707.893378)

Kinetic:       +492.740485
Potential:     -525.259468
External:        +0.000000
XC:            -4422.378405
Entropy (-ST):   -0.579145
Local:           -0.692770
--------------------------
Free energy:   -4456.169303
Extrapolated:  -4455.879730

Showing only first 2 kpts
 Kpt  Band  Eigenvalues  Occupancy
  0   330     -1.05214    1.97165
  0   331     -0.80744    1.71511
  0   332     -0.73240    1.47953
  0   333     -0.60900    0.90566

  1   330     -0.85735    1.81680
  1   331     -0.77727    1.63320
  1   332     -0.63984    1.05950
  1   333     -0.42382    0.22991


Fermi level: -0.62793

No gap

Forces in eV/Ang:
  0 Cu   -0.00456    0.02485    0.08686
  1 Cu   -0.03193   -0.06880   -0.10168
  2 Cu   -0.02664   -0.04171   -0.00429
  3 Cu   -0.01094   -0.00937   -0.02021
  4 Cu   -0.01025    0.00934   -0.00885
  5 Cu    0.01260    0.00585   -0.00092
  6 Cu   -0.03051   -0.00763    0.01095
  7 Cu   -0.01589    0.05553    0.05071
  8 Cu   -0.00922   -0.05073    0.05889
  9 Cu    0.03596    0.02086    0.06626
 10 Cu   -0.00522    0.00025    0.00143
 11 Cu    0.00024   -0.14698    0.05846
 12 Cu    0.02600   -0.10312   -0.00014
 13 Cu    0.07173   -0.08221   -0.05607
 14 Cu   -0.00572   -0.01524   -0.00642
 15 Cu   -0.00023    0.00355   -0.00178
 16 Cu   -0.06781   -0.07270    0.12701
 17 Cu   -0.00716    0.02302    0.18027
 18 Cu    0.03759    0.08977   -0.01174
 19 Cu   -0.01847   -0.11267   -0.00100
 20 Cu    0.01398   -0.02540    0.03198
 21 Cu   -0.04696    0.04073    0.06061
 22 Cu    0.01527   -0.01651   -0.00552
 23 Cu   -0.00167    0.01056   -0.03966
 24 Cu   -0.00217   -0.01917    0.01380
 25 Cu    0.00855    0.00092    0.04014
 26 Cu    0.11333   -0.10885    0.09471
 27 Cu   -0.01642    0.02348   -0.04205
 28 Cu    0.02714    0.08754    0.01904
 29 Cu    0.06455   -0.09794   -0.02054
 30 Cu   -0.07172    0.05588   -0.00063
 31 Cu   -0.00280    0.00554   -0.20082
 32 Cu    0.00772    0.01039   -0.07635
 33 Cu   -0.08366    0.02139   -0.01197
 34 Cu   -0.00637    0.00128   -0.07714
 35 Cu    0.00009    0.00594   -0.01927
 36 Cu    0.00778    0.01676   -0.00597
 37 Cu   -0.01645    0.01915   -0.00840
 38 Cu    0.07484   -0.06230   -0.09107
 39 Cu   -0.09818    0.11549    0.06508
 40 Cu    0.02586    0.25246    0.21305
 41 Cu   -0.01896   -0.09155    0.01737
 42 Cu    0.00522    0.11658   -0.02863
 43 Cu    0.02010   -0.05169   -0.05175
 44 Cu    0.06067   -0.01798    0.00935
 45 Cu    0.00415   -0.00242   -0.02963
 46 Cu    0.00971   -0.00108   -0.00310
 47 Cu    0.01022    0.00674    0.00069
 48 Cu   -0.05193   -0.04981   -0.11864
 49 Cu    0.04973    0.11035    0.10307
 50 Cu   -0.00131    0.10310    0.05603
 51 Cu   -0.00903    0.09228   -0.10991
 52 Cu   -0.01199    0.00188   -0.01711
 53 Cu    0.03648    0.04218   -0.00237
 54 Cl   -0.00246    0.01101   -0.09706
 55 Cl   -0.11530    0.00434    0.05862
 56 Cl    0.17446    0.04590    0.03087
 57 Cl    0.04930    0.08189   -0.05502
 58 Cl   -0.05296   -0.05653   -0.06216
 59 Cl   -0.10296   -0.06500    0.24435
 60 Cl   -0.05132   -0.07994    0.01854
 61 Cl   -0.20144   -0.00815   -0.09072
 62 Cl    0.15563   -0.17674   -0.30715
 63 Cl    0.08971    0.09551    0.04169

System changes: positions 

Initializing position-dependent things.

Density initialized from wave functions
                                    
                                    
                                    
                                    
            Cl         Cl           
                Cl                  
                    Cl              
         Clu     Cu    Cu           
         Cu   CCu   CuCu   Cu       
                                    
       Cu    CCu   CCu   Cu         
          CCu   CCu    CCu          
                                    
         Cu   CCu   CCu    Cu       
       Cu    CCu   CCu   Cu         
                                    
          CCu    Cu    CCu          
         Cu   CCu   CCu    Cu       
                                    
       Cu   CuCu   CCu   Cu         
           Cu    Cu     Cul         
              Cl                    
                  Cl                
           Cl         Cl            
                                    
                                    
                                    
                                    

Positions:
   0 Cu     1.872440    1.859746    9.967838    ( 0.0000,  0.0000,  0.0000)
   1 Cu     0.566009    0.518806   11.856773    ( 0.0000,  0.0000,  0.0000)
   2 Cu     3.214361    0.538733   11.849580    ( 0.0000,  0.0000,  0.0000)
   3 Cu     1.887649    1.836420   13.703865    ( 0.0000,  0.0000,  0.0000)
   4 Cu     0.583458    0.530198   15.537936    ( 0.0000,  0.0000,  0.0000)
   5 Cu     3.184701    0.521243   15.539029    ( 0.0000,  0.0000,  0.0000)
   6 Cu     1.906152    1.846596   17.397829    ( 0.0000,  0.0000,  0.0000)
   7 Cu     0.566779    0.513124   19.228158    ( 0.0000,  0.0000,  0.0000)
   8 Cu     3.188467    0.537489   19.236837    ( 0.0000,  0.0000,  0.0000)
   9 Cu     0.565097    3.114306   11.838669    ( 0.0000,  0.0000,  0.0000)
  10 Cu     0.581958    3.148858   15.528761    ( 0.0000,  0.0000,  0.0000)
  11 Cu     0.567081    3.192600   19.233761    ( 0.0000,  0.0000,  0.0000)
  12 Cu     7.144204    1.878988   10.030508    ( 0.0000,  0.0000,  0.0000)
  13 Cu     5.794559    0.519189   11.827067    ( 0.0000,  0.0000,  0.0000)
  14 Cu     7.107160    1.835002   13.704750    ( 0.0000,  0.0000,  0.0000)
  15 Cu     5.806506    0.523017   15.545160    ( 0.0000,  0.0000,  0.0000)
  16 Cu     7.117529    1.826502   17.363062    ( 0.0000,  0.0000,  0.0000)
  17 Cu     5.808452    0.565101   19.325533    ( 0.0000,  0.0000,  0.0000)
  18 Cu     4.501615    1.794563    9.933188    ( 0.0000,  0.0000,  0.0000)
  19 Cu     4.482630    4.489747    9.923396    ( 0.0000,  0.0000,  0.0000)
  20 Cu     3.205133    3.120937   11.839941    ( 0.0000,  0.0000,  0.0000)
  21 Cu     5.801073    3.139811   11.839619    ( 0.0000,  0.0000,  0.0000)
  22 Cu     4.504757    1.840828   13.714958    ( 0.0000,  0.0000,  0.0000)
  23 Cu     4.496500    4.443734   13.693688    ( 0.0000,  0.0000,  0.0000)
  24 Cu     3.189574    3.153560   15.542611    ( 0.0000,  0.0000,  0.0000)
  25 Cu     5.803171    3.152179   15.549605    ( 0.0000,  0.0000,  0.0000)
  26 Cu     4.478663    1.825157   17.407430    ( 0.0000,  0.0000,  0.0000)
  27 Cu     4.478300    4.466113   17.395100    ( 0.0000,  0.0000,  0.0000)
  28 Cu     3.212846    3.101129   19.330407    ( 0.0000,  0.0000,  0.0000)
  29 Cu     5.835420    3.195977   19.145038    ( 0.0000,  0.0000,  0.0000)
  30 Cu     1.855654    4.380226   10.092291    ( 0.0000,  0.0000,  0.0000)
  31 Cu     1.878272    7.044738    9.897543    ( 0.0000,  0.0000,  0.0000)
  32 Cu     0.578714    5.772955   11.876470    ( 0.0000,  0.0000,  0.0000)
  33 Cu     3.206862    5.773762   11.834645    ( 0.0000,  0.0000,  0.0000)
  34 Cu     1.887458    4.444574   13.686279    ( 0.0000,  0.0000,  0.0000)
  35 Cu     1.885079    7.073624   13.703798    ( 0.0000,  0.0000,  0.0000)
  36 Cu     0.586049    5.759352   15.540273    ( 0.0000,  0.0000,  0.0000)
  37 Cu     3.186295    5.752150   15.527954    ( 0.0000,  0.0000,  0.0000)
  38 Cu     1.894789    4.450998   17.406340    ( 0.0000,  0.0000,  0.0000)
  39 Cu     1.901505    7.078464   17.413210    ( 0.0000,  0.0000,  0.0000)
  40 Cu     0.554165    5.716867   19.195734    ( 0.0000,  0.0000,  0.0000)
  41 Cu     3.193828    5.798978   19.315601    ( 0.0000,  0.0000,  0.0000)
  42 Cu     7.123900    4.396731   10.020247    ( 0.0000,  0.0000,  0.0000)
  43 Cu     7.120250    7.083137   10.014213    ( 0.0000,  0.0000,  0.0000)
  44 Cu     5.784342    5.748699   11.851703    ( 0.0000,  0.0000,  0.0000)
  45 Cu     7.114227    4.449753   13.708244    ( 0.0000,  0.0000,  0.0000)
  46 Cu     7.109792    7.064127   13.705571    ( 0.0000,  0.0000,  0.0000)
  47 Cu     5.801725    5.756229   15.538947    ( 0.0000,  0.0000,  0.0000)
  48 Cu     7.129866    4.465900   17.389796    ( 0.0000,  0.0000,  0.0000)
  49 Cu     7.123308    7.081305   17.377195    ( 0.0000,  0.0000,  0.0000)
  50 Cu     5.826494    5.715427   19.225815    ( 0.0000,  0.0000,  0.0000)
  51 Cu     4.507891    7.044076   10.016447    ( 0.0000,  0.0000,  0.0000)
  52 Cu     4.504257    7.074015   13.704066    ( 0.0000,  0.0000,  0.0000)
  53 Cu     4.474475    7.058721   17.392322    ( 0.0000,  0.0000,  0.0000)
  54 Cl     3.107211    4.467438   21.160979    ( 0.0000,  0.0000,  0.0000)
  55 Cl     4.523783    3.136103    8.088825    ( 0.0000,  0.0000,  0.0000)
  56 Cl     2.297329    5.420705    8.180944    ( 0.0000,  0.0000,  0.0000)
  57 Cl     0.933253    1.874009   21.042699    ( 0.0000,  0.0000,  0.0000)
  58 Cl     5.447516    7.002494   21.049002    ( 0.0000,  0.0000,  0.0000)
  59 Cl     6.619879    0.755336    8.156193    ( 0.0000,  0.0000,  0.0000)
  60 Cl     6.762604    5.709186    8.205648    ( 0.0000,  0.0000,  0.0000)
  61 Cl     5.397022    2.211564   21.079369    ( 0.0000,  0.0000,  0.0000)
  62 Cl     1.000782    6.880884   21.064262    ( 0.0000,  0.0000,  0.0000)
  63 Cl     2.161751    0.537926    8.157875    ( 0.0000,  0.0000,  0.0000)

Unit cell:
           periodic     x           y           z      points  spacing
  1. axis:    yes    7.851007    0.000000    0.000000    45     0.1655
  2. axis:    yes    2.617002    7.851007    0.000000    48     0.1636
  3. axis:    yes    0.000000    0.000000   30.683867   175     0.1753

  Lengths:   7.851007   8.275688  30.683867
  Angles:   90.000000  90.000000  71.565053

Effective grid spacing dv^(1/3) = 0.1710

     iter     time        total  log10-change:
                         energy  eigst   dens
iter:   1 16:30:06 -4456.374628  -2.35
iter:   2 16:31:01 -4456.159526  -3.08  -2.44
iter:   3 16:32:07 -4456.078259c -3.54  -2.66
iter:   4 16:33:08 -4455.977071c -4.11  -2.68
iter:   5 16:34:02 -4455.966089c -3.90  -2.98
iter:   6 16:34:57 -4455.963272c -4.39  -3.20
iter:   7 16:35:51 -4455.961920c -4.89  -3.31
iter:   8 16:36:45 -4455.961286c -5.24  -3.43
iter:   9 16:37:39 -4455.960346c -5.24  -3.62
iter:  10 16:38:34 -4455.960037c -5.38  -3.73
iter:  11 16:39:28 -4455.959817c -6.59  -3.92
iter:  12 16:40:22 -4455.959595c -5.83  -4.00
iter:  13 16:41:15 -4455.959525c -6.31  -4.19c
iter:  14 16:42:10 -4455.959529c -6.80  -4.35c
iter:  15 16:43:04 -4455.959519c -7.30  -4.45c
iter:  16 16:43:57 -4455.959519c -7.12  -4.57c
iter:  17 16:44:50 -4455.959522c -7.44c -4.65c

Converged after 17 iterations.

Dipole moment: (-40.629338, -35.644281, 0.001682) |e|*Ang

Energy contributions relative to reference atoms: (reference = -2556707.893378)

Kinetic:       +495.150961
Potential:     -527.240347
External:        +0.000000
XC:            -4422.906795
Entropy (-ST):   -0.577714
Local:           -0.674484
--------------------------
Free energy:   -4456.248379
Extrapolated:  -4455.959522

Showing only first 2 kpts
 Kpt  Band  Eigenvalues  Occupancy
  0   330     -1.02670    1.97342
  0   331     -0.77640    1.71732
  0   332     -0.70282    1.48859
  0   333     -0.57319    0.88654

  1   330     -0.82022    1.80799
  1   331     -0.74423    1.62989
  1   332     -0.60956    1.06780
  1   333     -0.38740    0.22097


Fermi level: -0.59598

No gap

Forces in eV/Ang:
  0 Cu    0.00080    0.03346    0.10817
  1 Cu   -0.00509   -0.05376   -0.04238
  2 Cu    0.00170   -0.04109   -0.01403
  3 Cu   -0.01481   -0.02378   -0.02459
  4 Cu   -0.02101    0.01566    0.02478
  5 Cu    0.01605    0.00902    0.02052
  6 Cu    0.00945   -0.00741    0.00293
  7 Cu    0.01833    0.03270    0.05388
  8 Cu   -0.04039   -0.03893    0.06135
  9 Cu    0.02881    0.04998    0.04523
 10 Cu   -0.02320   -0.02758    0.01679
 11 Cu    0.00296   -0.00149   -0.05861
 12 Cu    0.01124   -0.08656   -0.01779
 13 Cu    0.02370   -0.03846   -0.03695
 14 Cu    0.00252   -0.02168   -0.02296
 15 Cu    0.00530    0.00938   -0.01035
 16 Cu   -0.00650   -0.02257    0.02651
 17 Cu   -0.01299    0.00854    0.05556
 18 Cu    0.03564    0.04263    0.00649
 19 Cu   -0.01066   -0.04557    0.04724
 20 Cu   -0.00597    0.01368    0.00027
 21 Cu   -0.02109    0.01537    0.02691
 22 Cu    0.01316   -0.03069   -0.01726
 23 Cu   -0.00940    0.02330   -0.01280
 24 Cu    0.02557   -0.04485    0.01702
 25 Cu    0.00057   -0.02720    0.03210
 26 Cu    0.01717   -0.01156    0.02959
 27 Cu    0.02414   -0.01692    0.00444
 28 Cu    0.02089    0.04540   -0.02788
 29 Cu    0.05978    0.04024   -0.06204
 30 Cu   -0.05524    0.01907    0.03357
 31 Cu    0.01021    0.01426   -0.04248
 32 Cu    0.00270    0.00599   -0.04215
 33 Cu   -0.02554   -0.00381   -0.03626
 34 Cu   -0.00657    0.01290   -0.04016
 35 Cu   -0.00690   -0.00119   -0.02269
 36 Cu   -0.00200    0.02539    0.01608
 37 Cu   -0.01713    0.03706    0.00859
 38 Cu    0.00530   -0.01029   -0.02334
 39 Cu   -0.02994    0.02571    0.03329
 40 Cu   -0.01820    0.06500    0.02204
 41 Cu   -0.01112   -0.04096   -0.03499
 42 Cu   -0.00547    0.04235    0.03635
 43 Cu   -0.01630   -0.03930   -0.05616
 44 Cu    0.00150    0.00590   -0.01979
 45 Cu    0.01189    0.00638   -0.01215
 46 Cu    0.01627   -0.00319   -0.02300
 47 Cu    0.01937    0.02961    0.00986
 48 Cu   -0.01565   -0.01920   -0.00603
 49 Cu    0.01543    0.02511    0.04279
 50 Cu    0.01197   -0.00755   -0.03098
 51 Cu    0.02038    0.08053   -0.10661
 52 Cu   -0.01049   -0.00205   -0.03288
 53 Cu   -0.00093    0.02527   -0.00112
 54 Cl   -0.00557    0.00844   -0.00913
 55 Cl   -0.05225   -0.03428   -0.00919
 56 Cl    0.08028    0.12674   -0.03496
 57 Cl   -0.03111    0.04508    0.02793
 58 Cl    0.04990   -0.04517   -0.00215
 59 Cl   -0.04582   -0.09682    0.13572
 60 Cl    0.01421   -0.05005   -0.02083
 61 Cl   -0.11140   -0.11304    0.01209
 62 Cl    0.07199    0.01392   -0.05328
 63 Cl   -0.01424    0.06051    0.01830

System changes: positions 

Initializing position-dependent things.

Density initialized from wave functions
                                    
                                    
                                    
                                    
            Cl         Cl           
                Cl                  
                    Cl              
         Clu     Cu    Cu           
         Cu   CCu   CuCu   Cu       
                                    
       Cu    CCu   CCu   Cu         
          CCu   CCu    CCu          
                                    
         Cu   CCu   CCu    Cu       
       Cu    CCu   CCu   Cu         
                                    
          CCu    CCu   CCu          
         Cu   CCu   CCu    Cu       
                                    
       Cu   CuCu   CCu   Cu         
           Cu    Cu     Cul         
              Cl                    
                  Cl                
           Cl         Cl            
                                    
                                    
                                    
                                    

Positions:
   0 Cu     1.872766    1.866447    9.983632    ( 0.0000,  0.0000,  0.0000)
   1 Cu     0.563780    0.509472   11.846191    ( 0.0000,  0.0000,  0.0000)
   2 Cu     3.213996    0.531464   11.847813    ( 0.0000,  0.0000,  0.0000)
   3 Cu     1.885557    1.833137   13.700357    ( 0.0000,  0.0000,  0.0000)
   4 Cu     0.580590    0.532604   15.539525    ( 0.0000,  0.0000,  0.0000)
   5 Cu     3.187120    0.522513   15.540565    ( 0.0000,  0.0000,  0.0000)
   6 Cu     1.906446    1.844802   17.398546    ( 0.0000,  0.0000,  0.0000)
   7 Cu     0.567228    0.516369   19.235568    ( 0.0000,  0.0000,  0.0000)
   8 Cu     3.184013    0.534236   19.245995    ( 0.0000,  0.0000,  0.0000)
   9 Cu     0.568373    3.119083   11.845534    ( 0.0000,  0.0000,  0.0000)
  10 Cu     0.579328    3.145804   15.529295    ( 0.0000,  0.0000,  0.0000)
  11 Cu     0.567373    3.190937   19.227396    ( 0.0000,  0.0000,  0.0000)
  12 Cu     7.148878    1.872888   10.036800    ( 0.0000,  0.0000,  0.0000)
  13 Cu     5.800274    0.510152   11.819517    ( 0.0000,  0.0000,  0.0000)
  14 Cu     7.107006    1.831906   13.701855    ( 0.0000,  0.0000,  0.0000)
  15 Cu     5.807121    0.524329   15.543228    ( 0.0000,  0.0000,  0.0000)
  16 Cu     7.113765    1.819830   17.371967    ( 0.0000,  0.0000,  0.0000)
  17 Cu     5.806022    0.570636   19.347690    ( 0.0000,  0.0000,  0.0000)
  18 Cu     4.507545    1.802252    9.937453    ( 0.0000,  0.0000,  0.0000)
  19 Cu     4.479535    4.480757    9.931952    ( 0.0000,  0.0000,  0.0000)
  20 Cu     3.205308    3.119945   11.841923    ( 0.0000,  0.0000,  0.0000)
  21 Cu     5.797739    3.142886   11.844990    ( 0.0000,  0.0000,  0.0000)
  22 Cu     4.507055    1.836678   13.712904    ( 0.0000,  0.0000,  0.0000)
  23 Cu     4.495006    4.446752   13.690654    ( 0.0000,  0.0000,  0.0000)
  24 Cu     3.192623    3.147721   15.544258    ( 0.0000,  0.0000,  0.0000)
  25 Cu     5.803213    3.149217   15.554546    ( 0.0000,  0.0000,  0.0000)
  26 Cu     4.485560    1.817461   17.415896    ( 0.0000,  0.0000,  0.0000)
  27 Cu     4.480348    4.466283   17.392935    ( 0.0000,  0.0000,  0.0000)
  28 Cu     3.217852    3.108680   19.324532    ( 0.0000,  0.0000,  0.0000)
  29 Cu     5.846288    3.199000   19.133206    ( 0.0000,  0.0000,  0.0000)
  30 Cu     1.845362    4.383331   10.097283    ( 0.0000,  0.0000,  0.0000)
  31 Cu     1.879579    7.042466    9.877366    ( 0.0000,  0.0000,  0.0000)
  32 Cu     0.579229    5.774747   11.867857    ( 0.0000,  0.0000,  0.0000)
  33 Cu     3.200646    5.775883   11.828705    ( 0.0000,  0.0000,  0.0000)
  34 Cu     1.886606    4.445869   13.678100    ( 0.0000,  0.0000,  0.0000)
  35 Cu     1.884287    7.073760   13.700640    ( 0.0000,  0.0000,  0.0000)
  36 Cu     0.586513    5.763003   15.541317    ( 0.0000,  0.0000,  0.0000)
  37 Cu     3.183470    5.757156   15.527737    ( 0.0000,  0.0000,  0.0000)
  38 Cu     1.896789    4.447749   17.400649    ( 0.0000,  0.0000,  0.0000)
  39 Cu     1.893874    7.087625   17.420483    ( 0.0000,  0.0000,  0.0000)
  40 Cu     0.550029    5.722196   19.192176    ( 0.0000,  0.0000,  0.0000)
  41 Cu     3.192195    5.791693   19.307201    ( 0.0000,  0.0000,  0.0000)
  42 Cu     7.123337    4.403250   10.024204    ( 0.0000,  0.0000,  0.0000)
  43 Cu     7.120026    7.078763   10.005320    ( 0.0000,  0.0000,  0.0000)
  44 Cu     5.786373    5.749362   11.849579    ( 0.0000,  0.0000,  0.0000)
  45 Cu     7.115815    4.450324   13.706292    ( 0.0000,  0.0000,  0.0000)
  46 Cu     7.112184    7.063476   13.703297    ( 0.0000,  0.0000,  0.0000)
  47 Cu     5.804183    5.760119   15.539214    ( 0.0000,  0.0000,  0.0000)
  48 Cu     7.128119    4.463802   17.386295    ( 0.0000,  0.0000,  0.0000)
  49 Cu     7.127816    7.088892   17.387593    ( 0.0000,  0.0000,  0.0000)
  50 Cu     5.828558    5.715846   19.222195    ( 0.0000,  0.0000,  0.0000)
  51 Cu     4.509336    7.052302   10.001235    ( 0.0000,  0.0000,  0.0000)
  52 Cu     4.502398    7.073835   13.699769    ( 0.0000,  0.0000,  0.0000)
  53 Cu     4.475213    7.064148   17.391681    ( 0.0000,  0.0000,  0.0000)
  54 Cl     3.106070    4.469209   21.160460    ( 0.0000,  0.0000,  0.0000)
  55 Cl     4.509988    3.132071    8.086297    ( 0.0000,  0.0000,  0.0000)
  56 Cl     2.328719    5.430791    8.177521    ( 0.0000,  0.0000,  0.0000)
  57 Cl     0.942678    1.884294   21.048215    ( 0.0000,  0.0000,  0.0000)
  58 Cl     5.439555    6.993281   21.051366    ( 0.0000,  0.0000,  0.0000)
  59 Cl     6.594071    0.746570    8.180774    ( 0.0000,  0.0000,  0.0000)
  60 Cl     6.751222    5.697658    8.200464    ( 0.0000,  0.0000,  0.0000)
  61 Cl     5.360629    2.203590   21.078301    ( 0.0000,  0.0000,  0.0000)
  62 Cl     1.032099    6.872019   21.056578    ( 0.0000,  0.0000,  0.0000)
  63 Cl     2.177272    0.557185    8.161540    ( 0.0000,  0.0000,  0.0000)

Unit cell:
           periodic     x           y           z      points  spacing
  1. axis:    yes    7.851007    0.000000    0.000000    45     0.1655
  2. axis:    yes    2.617002    7.851007    0.000000    48     0.1636
  3. axis:    yes    0.000000    0.000000   30.683867   175     0.1753

  Lengths:   7.851007   8.275688  30.683867
  Angles:   90.000000  90.000000  71.565053

Effective grid spacing dv^(1/3) = 0.1710

     iter     time        total  log10-change:
                         energy  eigst   dens
iter:   1 16:46:16 -4456.193187  -2.65
iter:   2 16:47:09 -4456.130950  -3.35  -2.61
iter:   3 16:48:03 -4456.028492c -3.86  -2.70
iter:   4 16:48:57 -4455.996737c -4.55  -2.89
iter:   5 16:49:50 -4455.991207c -4.04  -3.10
iter:   6 16:50:44 -4455.989012c -4.71  -3.39
iter:   7 16:51:38 -4455.989173c -5.17  -3.53
iter:   8 16:52:32 -4455.988942c -5.83  -3.65
iter:   9 16:53:25 -4455.988007c -5.55  -3.81
iter:  10 16:54:19 -4455.987800c -5.77  -4.00c
iter:  11 16:55:13 -4455.987694c -6.34  -4.10c
iter:  12 16:56:08 -4455.987722c -6.38  -4.27c
iter:  13 16:57:02 -4455.987687c -6.68  -4.43c
iter:  14 16:57:56 -4455.987679c -7.34  -4.57c
iter:  15 16:58:50 -4455.987675c -7.04  -4.62c
iter:  16 16:59:41 -4455.987671c -7.84c -4.74c

Converged after 16 iterations.

Dipole moment: (-39.803040, -35.416855, -0.007048) |e|*Ang

Energy contributions relative to reference atoms: (reference = -2556707.893378)

Kinetic:       +495.593832
Potential:     -527.564278
External:        +0.000000
XC:            -4423.040112
Entropy (-ST):   -0.577208
Local:           -0.688509
--------------------------
Free energy:   -4456.276275
Extrapolated:  -4455.987671

Showing only first 2 kpts
 Kpt  Band  Eigenvalues  Occupancy
  0   330     -1.02390    1.97456
  0   331     -0.76997    1.71932
  0   332     -0.69939    1.50300
  0   333     -0.56219    0.86810

  1   330     -0.81064    1.80391
  1   331     -0.73796    1.63284
  1   332     -0.60384    1.07542
  1   333     -0.37744    0.21570


Fermi level: -0.58873

No gap

Forces in eV/Ang:
  0 Cu    0.01438    0.01408    0.06708
  1 Cu    0.01235   -0.01868    0.00221
  2 Cu    0.02083   -0.02073   -0.01623
  3 Cu   -0.00389   -0.02070   -0.01099
  4 Cu   -0.00907    0.00285    0.01672
  5 Cu    0.00633   -0.00221    0.00853
  6 Cu    0.02060   -0.00915    0.00830
  7 Cu    0.01584    0.01897    0.06435
  8 Cu   -0.03338   -0.00860    0.05563
  9 Cu   -0.01766    0.01306    0.01866
 10 Cu   -0.00728   -0.01292    0.00459
 11 Cu    0.02711    0.00807   -0.03355
 12 Cu    0.02698    0.00977    0.03705
[...]
  2 Cu    0.00257   -0.00190   -0.00449
  3 Cu    0.00234    0.00127   -0.00461
  4 Cu    0.00590    0.00170   -0.00332
  5 Cu   -0.00680   -0.00001    0.00374
  6 Cu    0.00067   -0.00074    0.00983
  7 Cu    0.00019   -0.00015    0.00040
  8 Cu    0.01439    0.01068    0.00386
  9 Cu    0.00206   -0.00118    0.00910
 10 Cu    0.00149    0.00134    0.00418
 11 Cu   -0.01127   -0.00708   -0.00931
 12 Cu   -0.00341   -0.00771   -0.00345
 13 Cu   -0.00509   -0.00992    0.00388
 14 Cu    0.00012   -0.00082   -0.00015
 15 Cu    0.00344    0.00179    0.00233
 16 Cu    0.00005    0.00199   -0.00540
 17 Cu    0.00557   -0.00096    0.00000
 18 Cu   -0.00675    0.00416   -0.00114
 19 Cu    0.00497    0.00344   -0.00586
 20 Cu    0.00477    0.00866   -0.00544
 21 Cu   -0.00323   -0.00423   -0.00073
 22 Cu   -0.00515   -0.00279   -0.00072
 23 Cu    0.00160    0.00402    0.00281
 24 Cu   -0.00089    0.00035   -0.00132
 25 Cu   -0.00373    0.00120   -0.00120
 26 Cu   -0.00095   -0.00738   -0.00979
 27 Cu   -0.00603   -0.00620    0.00930
 28 Cu   -0.00717   -0.00771    0.00246
 29 Cu   -0.00509   -0.00422   -0.00221
 30 Cu    0.00826    0.01117    0.00001
 31 Cu   -0.00154    0.00179   -0.01939
 32 Cu    0.00622   -0.00172    0.00171
 33 Cu    0.00011    0.01116    0.00225
 34 Cu    0.00466    0.00199    0.00332
 35 Cu   -0.00152    0.00031    0.00220
 36 Cu    0.00161    0.00121    0.00129
 37 Cu    0.00426    0.00307   -0.00115
 38 Cu   -0.00039    0.00282    0.00351
 39 Cu    0.00704    0.00243   -0.00537
 40 Cu   -0.00046    0.00366   -0.00545
 41 Cu    0.00417    0.00095    0.00374
 42 Cu    0.01060    0.01512    0.00201
 43 Cu    0.00597   -0.00810   -0.00518
 44 Cu   -0.00038    0.00118   -0.00725
 45 Cu   -0.00361    0.00152   -0.00377
 46 Cu   -0.00291   -0.00231    0.00211
 47 Cu   -0.00152    0.00202    0.00786
 48 Cu    0.00071    0.00411    0.00526
 49 Cu    0.00427   -0.00153   -0.00506
 50 Cu    0.00456    0.01081   -0.00625
 51 Cu   -0.00585    0.00046   -0.00702
 52 Cu    0.00566    0.00236   -0.00553
 53 Cu    0.00098   -0.00257    0.00470
 54 Cl    0.00031   -0.00788    0.00857
 55 Cl   -0.00168   -0.00317    0.00916
 56 Cl    0.00844   -0.00936    0.00497
 57 Cl   -0.00433    0.01111   -0.00418
 58 Cl   -0.00487   -0.00456   -0.01366
 59 Cl   -0.01315    0.01365    0.02403
 60 Cl   -0.03154   -0.01587    0.01386
 61 Cl   -0.01377   -0.00439   -0.00032
 62 Cl    0.02592   -0.01158    0.01345
 63 Cl   -0.00545    0.00846    0.02693

System changes: positions 

Initializing position-dependent things.

Density initialized from wave functions
                                    
                                    
                                    
                                    
             Cl        Cl           
                Cl                  
                                    
        ClCu    Cu Cl  Cu           
         Cu   CCu   CuCu   Cu       
                                    
       Cu    CCu   CCu   Cu         
          CCu   CCu    CCu          
                                    
         Cu   CCu   CCu    Cu       
       Cu    CCu   CCu   Cu         
                                    
          CCu    Cu    CCu          
         Cu   CCu   CCu    Cu       
                                    
       Cu   CuCu   CCu   Cu         
           Cu  Cl Cu    Cul         
                                    
                  Cl                
           Cl        Cl             
                                    
                                    
                                    
                                    

Positions:
   0 Cu     1.917065    1.881793   10.002168    ( 0.0000,  0.0000,  0.0000)
   1 Cu     0.608811    0.512858   11.861324    ( 0.0000,  0.0000,  0.0000)
   2 Cu     3.235858    0.514834   11.815478    ( 0.0000,  0.0000,  0.0000)
   3 Cu     1.904802    1.830991   13.694326    ( 0.0000,  0.0000,  0.0000)
   4 Cu     0.590256    0.529477   15.535107    ( 0.0000,  0.0000,  0.0000)
   5 Cu     3.192383    0.523931   15.538617    ( 0.0000,  0.0000,  0.0000)
   6 Cu     1.928836    1.827585   17.420846    ( 0.0000,  0.0000,  0.0000)
   7 Cu     0.579577    0.533294   19.311270    ( 0.0000,  0.0000,  0.0000)
   8 Cu     3.178600    0.532690   19.307144    ( 0.0000,  0.0000,  0.0000)
   9 Cu     0.578712    3.135981   11.845355    ( 0.0000,  0.0000,  0.0000)
  10 Cu     0.594460    3.139842   15.526754    ( 0.0000,  0.0000,  0.0000)
  11 Cu     0.623127    3.190947   19.216538    ( 0.0000,  0.0000,  0.0000)
  12 Cu     7.204292    1.873659   10.041509    ( 0.0000,  0.0000,  0.0000)
  13 Cu     5.804174    0.520473   11.830279    ( 0.0000,  0.0000,  0.0000)
  14 Cu     7.121584    1.832350   13.690844    ( 0.0000,  0.0000,  0.0000)
  15 Cu     5.817882    0.522381   15.546688    ( 0.0000,  0.0000,  0.0000)
  16 Cu     7.150090    1.824083   17.363145    ( 0.0000,  0.0000,  0.0000)
  17 Cu     5.810194    0.535767   19.194749    ( 0.0000,  0.0000,  0.0000)
  18 Cu     4.531295    1.829220    9.925051    ( 0.0000,  0.0000,  0.0000)
  19 Cu     4.473891    4.458550    9.891980    ( 0.0000,  0.0000,  0.0000)
  20 Cu     3.216772    3.126018   11.826779    ( 0.0000,  0.0000,  0.0000)
  21 Cu     5.798711    3.151809   11.840091    ( 0.0000,  0.0000,  0.0000)
  22 Cu     4.516695    1.830167   13.699375    ( 0.0000,  0.0000,  0.0000)
  23 Cu     4.500824    4.453077   13.691268    ( 0.0000,  0.0000,  0.0000)
  24 Cu     3.209672    3.141452   15.543621    ( 0.0000,  0.0000,  0.0000)
  25 Cu     5.814371    3.144251   15.548337    ( 0.0000,  0.0000,  0.0000)
  26 Cu     4.491903    1.832982   17.404270    ( 0.0000,  0.0000,  0.0000)
  27 Cu     4.494987    4.468815   17.402133    ( 0.0000,  0.0000,  0.0000)
  28 Cu     3.238796    3.142789   19.327951    ( 0.0000,  0.0000,  0.0000)
  29 Cu     5.908722    3.190486   19.180219    ( 0.0000,  0.0000,  0.0000)
  30 Cu     1.810508    4.405782   10.055391    ( 0.0000,  0.0000,  0.0000)
  31 Cu     1.906609    7.056189   10.044188    ( 0.0000,  0.0000,  0.0000)
  32 Cu     0.560518    5.768663   11.874615    ( 0.0000,  0.0000,  0.0000)
  33 Cu     3.220443    5.760893   11.827624    ( 0.0000,  0.0000,  0.0000)
  34 Cu     1.897567    4.447238   13.685707    ( 0.0000,  0.0000,  0.0000)
  35 Cu     1.890875    7.069659   13.687148    ( 0.0000,  0.0000,  0.0000)
  36 Cu     0.589772    5.760743   15.544170    ( 0.0000,  0.0000,  0.0000)
  37 Cu     3.190556    5.764426   15.535927    ( 0.0000,  0.0000,  0.0000)
  38 Cu     1.912332    4.442436   17.397546    ( 0.0000,  0.0000,  0.0000)
  39 Cu     1.905335    7.074729   17.411913    ( 0.0000,  0.0000,  0.0000)
  40 Cu     0.507578    5.717846   19.190274    ( 0.0000,  0.0000,  0.0000)
  41 Cu     3.173205    5.774141   19.326264    ( 0.0000,  0.0000,  0.0000)
  42 Cu     7.097377    4.402466   10.030862    ( 0.0000,  0.0000,  0.0000)
  43 Cu     7.127929    7.067174    9.936766    ( 0.0000,  0.0000,  0.0000)
  44 Cu     5.777498    5.771337   11.809192    ( 0.0000,  0.0000,  0.0000)
  45 Cu     7.114563    4.454848   13.708907    ( 0.0000,  0.0000,  0.0000)
  46 Cu     7.116856    7.063166   13.698794    ( 0.0000,  0.0000,  0.0000)
  47 Cu     5.804033    5.763476   15.540973    ( 0.0000,  0.0000,  0.0000)
  48 Cu     7.131817    4.456322   17.387941    ( 0.0000,  0.0000,  0.0000)
  49 Cu     7.099622    7.079617   17.370993    ( 0.0000,  0.0000,  0.0000)
  50 Cu     5.794842    5.715114   19.225406    ( 0.0000,  0.0000,  0.0000)
  51 Cu     4.528001    7.067960    9.918167    ( 0.0000,  0.0000,  0.0000)
  52 Cu     4.515370    7.068504   13.698467    ( 0.0000,  0.0000,  0.0000)
  53 Cu     4.465874    7.081950   17.424574    ( 0.0000,  0.0000,  0.0000)
  54 Cl     3.145758    4.464702   21.221331    ( 0.0000,  0.0000,  0.0000)
  55 Cl     4.389018    3.114480    8.017267    ( 0.0000,  0.0000,  0.0000)
  56 Cl     2.582495    5.625370    8.296615    ( 0.0000,  0.0000,  0.0000)
  57 Cl     0.729254    1.981242   21.124428    ( 0.0000,  0.0000,  0.0000)
  58 Cl     5.589444    6.940532   21.116428    ( 0.0000,  0.0000,  0.0000)
  59 Cl     6.234885    0.629248    8.368602    ( 0.0000,  0.0000,  0.0000)
  60 Cl     6.813478    5.612629    8.138915    ( 0.0000,  0.0000,  0.0000)
  61 Cl     4.989087    1.981597   20.892436    ( 0.0000,  0.0000,  0.0000)
  62 Cl     1.329025    6.965399   20.913387    ( 0.0000,  0.0000,  0.0000)
  63 Cl     1.943909    0.659803    8.102577    ( 0.0000,  0.0000,  0.0000)

Unit cell:
           periodic     x           y           z      points  spacing
  1. axis:    yes    7.851007    0.000000    0.000000    45     0.1655
  2. axis:    yes    2.617002    7.851007    0.000000    48     0.1636
  3. axis:    yes    0.000000    0.000000   30.683867   175     0.1753

  Lengths:   7.851007   8.275688  30.683867
  Angles:   90.000000  90.000000  71.565053

Effective grid spacing dv^(1/3) = 0.1710

     iter     time        total  log10-change:
                         energy  eigst   dens
iter:   1 20:27:29 -4456.163364  -3.51
iter:   2 20:28:23 -4456.170110  -4.06  -3.03
iter:   3 20:29:18 -4456.135073c -4.71  -3.00
iter:   4 20:30:13 -4456.132922c -4.74  -3.42
iter:   5 20:31:07 -4456.132709c -5.76  -3.77
iter:   6 20:32:02 -4456.132425c -5.56  -3.86
iter:   7 20:32:57 -4456.132376c -6.51  -4.00c
iter:   8 20:33:51 -4456.132371c -6.12  -4.15c
iter:   9 20:34:45 -4456.132343c -7.38  -4.44c
iter:  10 20:35:39 -4456.132305c -6.55  -4.49c
iter:  11 20:36:35 -4456.132303c -7.63c -4.64c

Converged after 11 iterations.

Dipole moment: (-23.222454, -35.331859, -0.003848) |e|*Ang

Energy contributions relative to reference atoms: (reference = -2556707.893378)

Kinetic:       +498.653719
Potential:     -529.740195
External:        +0.000000
XC:            -4424.044641
Entropy (-ST):   -0.572625
Local:           -0.714874
--------------------------
Free energy:   -4456.418616
Extrapolated:  -4456.132303

Showing only first 2 kpts
 Kpt  Band  Eigenvalues  Occupancy
  0   330     -0.97252    1.97616
  0   331     -0.71722    1.73163
  0   332     -0.66092    1.57216
  0   333     -0.49518    0.82389

  1   330     -0.73413    1.76855
  1   331     -0.69023    1.66252
  1   332     -0.55627    1.12682
  1   333     -0.36546    0.32137


Fermi level: -0.53077

No gap

Forces in eV/Ang:
  0 Cu   -0.00610    0.00109    0.00898
  1 Cu   -0.00221   -0.00044    0.00784
  2 Cu   -0.00378    0.00575    0.00081
  3 Cu    0.00288    0.00669   -0.00624
  4 Cu    0.00810    0.00705   -0.00875
  5 Cu   -0.00622   -0.00361   -0.00489
  6 Cu   -0.00270    0.00318   -0.00263
  7 Cu    0.00492    0.00107    0.00384
  8 Cu    0.00457   -0.00199    0.00491
  9 Cu    0.01028    0.00750    0.00470
 10 Cu    0.00202    0.00724   -0.00902
 11 Cu   -0.01221    0.00623   -0.00507
 12 Cu   -0.00904    0.00019   -0.00074
 13 Cu    0.00382   -0.00232   -0.00199
 14 Cu   -0.00267    0.00817    0.00203
 15 Cu   -0.00117    0.00344   -0.00582
 16 Cu   -0.00681   -0.00093   -0.00258
 17 Cu    0.00969   -0.00303   -0.01368
 18 Cu    0.00172   -0.00617    0.00312
 19 Cu    0.00751    0.01428    0.00790
 20 Cu   -0.00116    0.00632    0.00803
 21 Cu    0.00095    0.00201    0.00493
 22 Cu   -0.00333    0.00548   -0.00267
 23 Cu    0.00506   -0.00539   -0.00790
 24 Cu   -0.00543    0.00562   -0.00110
 25 Cu   -0.00041    0.00862   -0.00684
 26 Cu    0.01041   -0.00631   -0.00280
 27 Cu   -0.00206   -0.00053    0.00295
 28 Cu   -0.00871   -0.00053   -0.00450
 29 Cu   -0.00633   -0.00298    0.00277
 30 Cu    0.00716   -0.00327   -0.00587
 31 Cu   -0.00071    0.00494   -0.00176
 32 Cu    0.00624   -0.00429    0.00549
 33 Cu   -0.00421    0.00075    0.00259
 34 Cu   -0.00126   -0.00716   -0.00049
 35 Cu    0.00221    0.00268    0.00620
 36 Cu    0.00086   -0.00884   -0.00182
 37 Cu    0.00666   -0.00310    0.00734
 38 Cu   -0.00200    0.00080    0.00186
 39 Cu   -0.00062    0.00209   -0.00374
 40 Cu    0.00072   -0.00608   -0.00343
 41 Cu    0.00383   -0.00230    0.00375
 42 Cu    0.01168   -0.00465    0.00335
 43 Cu    0.00074   -0.00185   -0.00897
 44 Cu    0.00233   -0.01237    0.00099
 45 Cu   -0.00170   -0.00598    0.00128
 46 Cu   -0.00538   -0.00515    0.00748
 47 Cu   -0.00561   -0.00682    0.00394
 48 Cu   -0.00220   -0.00017    0.00945
 49 Cu    0.00707    0.00383   -0.00033
 50 Cu    0.00840    0.00411   -0.00882
 51 Cu    0.00192   -0.00132   -0.00526
 52 Cu    0.00431    0.00940   -0.00029
 53 Cu    0.00610   -0.00245    0.00479
 54 Cl    0.00325   -0.00040    0.00718
 55 Cl    0.00632   -0.01399   -0.01762
 56 Cl   -0.00178   -0.00726   -0.01054
 57 Cl   -0.01225   -0.00542   -0.00491
 58 Cl    0.00555    0.01042   -0.00788
 59 Cl   -0.01269    0.01978   -0.00365
 60 Cl   -0.01973    0.00526   -0.00131
 61 Cl    0.01281   -0.00500    0.00663
 62 Cl    0.00292    0.00316    0.01926
 63 Cl   -0.01113   -0.01254   -0.01112

Timing:                                      incl.     excl.
-------------------------------------------------------------------
Density initialized from wave functions:   112.212   112.210   0.5% |
 Symmetrize density:                         0.001     0.001   0.0% |
Forces:                                    527.963   527.963   2.5% ||
Hamiltonian:                               204.309     0.434   0.0% |
 Atomic:                                     9.907     2.837   0.0% |
  XC Correction:                             7.070     7.070   0.0% |
 Calculate atomic Hamiltonians:             45.831    45.831   0.2% |
 Communicate:                                0.625     0.625   0.0% |
 Initialize Hamiltonian:                     0.001     0.001   0.0% |
 Poisson:                                    0.150     0.150   0.0% |
 XC 3D grid:                               147.360    22.220   0.1% |
  VdW-DF integral:                         125.140     4.492   0.0% |
   Convolution:                              8.994     8.994   0.0% |
   FFT:                                      4.463     4.463   0.0% |
   gather:                                  42.129    42.129   0.2% |
   hmm1:                                     2.503     2.503   0.0% |
   hmm2:                                     6.075     6.075   0.0% |
   iFFT:                                     4.724     4.724   0.0% |
   potential:                               46.322     0.485   0.0% |
    collect:                                 6.923     6.923   0.0% |
    p1:                                     22.096    22.096   0.1% |
    p2:                                      9.330     9.330   0.0% |
    sum:                                     7.488     7.488   0.0% |
   splines:                                  5.438     5.438   0.0% |
LCAO initialization:                       231.014     0.599   0.0% |
 LCAO eigensolver:                          15.173     0.001   0.0% |
  Blacs Orbital Layouts:                     0.661     0.001   0.0% |
   General diagonalize:                      0.648     0.648   0.0% |
   Redistribute coefs:                       0.009     0.009   0.0% |
   Send coefs to domains:                    0.003     0.003   0.0% |
  Calculate projections:                     0.005     0.005   0.0% |
  Distribute overlap matrix:                14.215     0.001   0.0% |
   Scalapack redistribute:                   0.013     0.013   0.0% |
   blocked summation:                       14.201    14.201   0.1% |
  Potential matrix:                          0.160     0.160   0.0% |
  SparseAtomicCorrection:                    0.015     0.015   0.0% |
  Sum over cells:                            0.116     0.116   0.0% |
 LCAO to grid:                             212.581   212.581   1.0% |
 Set positions (LCAO WFS):                   2.661     0.011   0.0% |
  Basic WFS set positions:                   0.003     0.003   0.0% |
  Basis functions set positions:             0.000     0.000   0.0% |
  P tci:                                     0.000     0.000   0.0% |
  ST tci:                                    0.418     0.418   0.0% |
  Scalapack redistribute:                    0.029     0.029   0.0% |
  blocked summation:                         2.038     2.038   0.0% |
  mktci:                                     0.162     0.162   0.0% |
PWDescriptor:                                0.768     0.768   0.0% |
Redistribute:                                0.027     0.027   0.0% |
SCF-cycle:                               19918.741   710.352   3.4% ||
 Davidson:                               14706.212  3755.900  17.8% |------|
  Apply H:                                1508.239  1479.843   7.0% |--|
   HMM T:                                   28.396    28.396   0.1% |
  Subspace diag:                          2518.848     0.077   0.0% |
   calc_h_matrix:                         1874.440   374.258   1.8% ||
    Apply H:                              1500.182  1470.607   7.0% |--|
     HMM T:                                 29.576    29.576   0.1% |
   diagonalize:                             60.693    60.693   0.3% |
   rotate_psi:                             583.637   583.637   2.8% ||
  calc. matrices:                         5379.579  2393.720  11.3% |----|
   Apply H:                               2985.859  2928.568  13.8% |-----|
    HMM T:                                  57.291    57.291   0.3% |
  diagonalize:                             435.042   435.042   2.1% ||
  rotate_psi:                             1108.604  1108.604   5.2% |-|
 Density:                                 1647.387     0.018   0.0% |
  Atomic density matrices:                   5.590     5.590   0.0% |
  Mix:                                     817.160   817.160   3.9% |-|
  Multipole moments:                         0.406     0.406   0.0% |
  Pseudo density:                          824.214   824.197   3.9% |-|
   Symmetrize density:                       0.017     0.017   0.0% |
 Hamiltonian:                             2760.271     6.639   0.0% |
  Atomic:                                  133.080    33.080   0.2% |
   XC Correction:                          100.000   100.000   0.5% |
  Calculate atomic Hamiltonians:           678.342   678.342   3.2% ||
  Communicate:                              17.341    17.341   0.1% |
  Poisson:                                   2.093     2.093   0.0% |
  XC 3D grid:                             1922.776   288.482   1.4% ||
   VdW-DF integral:                       1634.295    64.158   0.3% |
    Convolution:                           128.272   128.272   0.6% |
    FFT:                                    63.561    63.561   0.3% |
    gather:                                523.085   523.085   2.5% ||
    hmm1:                                   36.460    36.460   0.2% |
    hmm2:                                   90.619    90.619   0.4% |
    iFFT:                                   66.534    66.534   0.3% |
    potential:                             661.602     7.144   0.0% |
     collect:                               97.469    97.469   0.5% |
     p1:                                   314.751   314.751   1.5% ||
     p2:                                   133.447   133.447   0.6% |
     sum:                                  108.792   108.792   0.5% |
    splines:                                 0.004     0.004   0.0% |
 Orthonormalize:                            94.518     0.010   0.0% |
  calc_s_matrix:                            11.682    11.682   0.1% |
  inverse-cholesky:                          2.620     2.620   0.0% |
  projections:                              60.304    60.304   0.3% |
  rotate_psi_s:                             19.903    19.903   0.1% |
Set symmetry:                                0.001     0.001   0.0% |
Other:                                     163.046   163.046   0.8% |
-------------------------------------------------------------------
Total:                                             21158.080 100.0%

Memory usage: 1.37 GiB
Date: Mon Oct 17 20:36:57 2022
